VARIABLES = "X", "Y", "P", "U", "V", "divergence", "vorticity"
ZONE NODES=7045, ELEMENTS=13692, DATAPACKING=BLOCK,
VARLOCATION=([6]=CELLCENTERED), ZONETYPE=FETRIANGLE
-1.00000000000000000000
-0.95870405360974331188
-1.00000000000000000000
-0.91740810721948651274
-0.95870405360974331188
-1.00000000000000000000
-0.93677625550821952416
-0.87355251101643893730
-0.89548030911796272502
-0.90826981591345901101
-0.89913152460743150929
-0.94956576230371569913
-0.86699246983458699845
-0.84506467173306321072
-0.81657683244968748415
-0.85785417852855949672
-0.94956576230371569913
-1.00000000000000000000
-1.00000000000000000000
-0.81187128661228413762
-0.75019006220812944896
-0.78338344732890852207
-0.83518071700994167550
-0.79390337093106966293
-0.77122990941245173069
-0.89608281587885607600
-0.89303410715028075373
-0.94651705357514037686
-0.83213200828136624221
-0.72193395158774442688
-0.69367784096735940480
-0.75512733670852338896
-0.73245387518990556774
-0.94651705357514037686
-1.00000000000000000000
-1.00000000000000000000
-0.69047989642868656812
-0.63076973064924368728
-0.66222378580830154604
-0.79244623528527013967
-0.84274017121777544670
-0.78183807234886093518
-0.70065645051402491994
-0.66188041629147864597
-0.63008299161559799817
-0.89687268809203568587
-0.94843634404601784293
-0.89495339762115821980
-0.84465946168865291277
-0.73660676197889041195
-0.72599859904248120746
-0.68076728867251068422
-0.65542514014405428568
-0.63299878052114832983
-0.60154472536209047107
-0.57231972007493736587
-0.60120135584526768202
-1.00000000000000000000
-1.00000000000000000000
-0.94843634404601784293
-0.79745687997300329641
-0.84716478403251949114
-0.79495155762913671804
-0.54471627178506420996
-0.57394127707221731516
-0.51711282349519094304
-0.75393315963644136346
-0.69809368633006152471
-0.71542008398761247623
-0.59331003959709271989
-0.55653708757858733058
-0.61865218812554900740
-0.75643848198030783081
-0.54262653275268735165
-0.51293334543043733742
-0.57150816852301766779
-0.94913694968050699163
-0.89757329372652483457
-0.89827389936101398327
-0.84786538966700863984
-0.53473521650451227849
-0.48928944344015273815
-0.46146606338511453327
-0.51689289173002594957
-0.65060858597165893702
-0.62044988327080718982
-0.66793498362920988853
-0.58849348542469726020
-0.48719970440777593534
-0.69977858204274823173
-0.68413708009788409825
-0.74079698003544369733
-0.94913694968050699163
-1.00000000000000000000
-1.00000000000000000000
-0.84710382681817608663
-0.79669531712417074321
-0.79593375427533819000
-0.65229348168434564403
-0.46376262282641056434
-0.41041242215763018564
-0.43593924277137235945
-0.74003541718661114412
-0.48399658166660253222
-0.45505981790276767152
-0.50579845274067747329
-0.43519776093343853773
-0.40892945848176254220
-0.46093140195609993981
-0.56977009286452129366
-0.53781369501841136405
-0.51909030245823528649
-0.94930538366891625834
-0.89844233334942313896
-0.89861076733783240567
-0.43199463819226513461
-0.84727226080658524232
-0.62365018277671557811
-0.59180658436317701288
-0.56316328545554694696
-0.51691507008920867250
-0.46617643525129881521
-0.47729305259983001442
-0.49819167752903265045
-0.41051599463296473136
-0.38498917401922255754
-0.35956592588081492945
-0.38424769218128873582
-0.69739459097985512237
-0.74666417262759665618
-0.69076583553886961031
-0.54112679395689111672
-1.00000000000000000000
-1.00000000000000000000
-0.94930538366891625834
-0.59569025325536617554
-0.63991366667662519241
-0.57942676935545656125
-0.79803280187081759856
-0.84832178460432494660
-0.79698327807307789428
-0.38401544256437580849
-0.35910142664698907478
-0.40708062227487840090
-0.64654242211761059345
-0.74771369642533636046
-0.33502418324089011659
-0.36044743137929768917
-0.31048244060096524821
-0.44769802558888538435
-0.43658140824035418515
-0.41810299857794075429
-0.50947875820886356912
-0.48744226671020773889
-0.45579423096218013578
-0.33614199805940747634
-0.31271807023800007874
-0.36082376435988128272
-0.45600051889894860357
-0.43470798519806719273
-0.47689914382815123961
-0.38860221261246491453
-0.33590974844249454900
-0.94918267320385507624
-0.89848805687277133458
-0.89836534640771026350
-0.84819907413926398654
-0.54752206496534583380
-0.53125858106543621950
-0.49935387667532554756
-0.44525110808012369201
-0.42640549188800397351
-0.60085039015427099685
-0.60601052705317592917
-0.65170255901651552577
-0.47757405381875284167
-0.69930114159075584812
-0.74866697173078677885
-0.69834786628530554076
-0.28764717619925633807
-0.26481191179754742793
-0.31218891883918120644
-0.28876499101777375333
-0.65265583432196594416
-0.39041245338010666099
-0.36091166741463082124
-0.36272190818227256770
-0.94918267320385507624
-1.00000000000000000000
-1.00000000000000000000
-0.31282876898406952737
-0.28963709077957505711
-0.26655611132115003548
-0.39871494669016988022
-0.51529045162292463900
-0.55549035243914546278
-0.50732216414912512104
-0.79683971001657916133
-0.79564661816234083513
-0.84700598228502554932
-0.56065048933805028408
-0.74747387987654834163
-0.41342043548986939783
-0.40287731260781289855
-0.37104664001755860436
-0.42380419708652172783
-0.46157903688092360994
-0.43979921402435095956
-0.26364518818741977668
-0.21680793577387436066
-0.24080992378571089430
-0.32621110378529905027
-0.32440086301765724830
-0.28970029938832547733
-0.27812820535473775641
-0.36688427409991558603
-0.24459867118628619842
-0.22438543057502494116
-0.26855175040651252383
-0.24547077094808750219
-0.60413309469837395138
-0.60225566234357197359
-0.65077840196716385535
-0.89614434593770386783
-0.94807217296885193392
-0.89725484617270701015
-0.41178928130697356469
-0.36941548583466282674
-0.36778433165176704911
-0.84589548205002240699
-0.39579426436914438847
-0.47299161973958292471
-0.46502333226578335124
-0.43069278785624115491
-0.56076914790666898547
-0.51540911019154345141
-0.51552776876016215279
-0.42724849247138141362
-0.69017174679830806117
-0.74290918248032444815
-0.69473644419453195464
-0.55889171555186711871
-0.29844230524768744495
-0.33474447263262302465
-0.33058210671498000632
-0.22013809640944387302
-0.19613610839760736715
-0.17546428102134034588
-0.64621370457093996187
-0.29407130231800648890
-0.19992485579818264352
-0.24147412983007288112
-0.21639214833899575452
-0.25304622386366060205
-0.19810909540258450634
-0.23233260336186728479
-0.21124726298880472375
-1.00000000000000000000
-1.00000000000000000000
-0.94807217296885193392
-0.78749666679364227484
-0.84182050636567307134
-0.79157164247799149948
-0.42974905715270006468
-0.42880532644915891893
-0.47204788903604177897
-0.47216654760466053586
-0.20725062187079013043
-0.33292901830190257950
-0.33456017248479841264
-0.29807370495203816541
-0.73883420679597522351
-0.38970009376516412392
-0.36169016104778684007
-0.35559599044380657551
-0.39314438915002386521
-0.29825800509986277742
-0.15204890769557444230
-0.17272073507184143581
-0.12863353436980853872
-0.51070292842793318933
-0.50587808809570411483
-0.55406687521963804421
-0.25928916155209580374
-0.22887802371586615791
-0.26366016448177681530
-0.63835394479498441811
-0.59439590256761642983
-0.58653614279166088608
-0.22263508602743095621
-0.15651021412894222662
-0.13755614723654410736
-0.18097078890578452426
-0.16783262131956430685
-0.94638392202183152513
-0.89445609499068345905
-0.89276784404366305026
-0.84013225541865266255
-0.54620711544368250046
-0.28733647981992088694
-0.32756040573584399578
-0.29270509238597952617
-0.38806549149848024172
-0.34543819514071938404
-0.38712176079493915148
-0.32146623513186373122
-0.35051709279226295202
-0.46801734222659074902
-0.42465612107108918760
-0.42050691569301940076
-0.66395564408669194290
-0.72572615544016705336
-0.67706369544250000203
-0.17396574701260186790
-0.14982239862261925722
-0.18310727348080751975
-0.46319250189436178555
-0.26436946873323208251
-0.23029663221877677559
-0.26418516858540747050
-0.62524589343917647000
-0.10925860172318282992
-0.08988366907655710725
-0.13267397504894873350
-0.22958732796732145287
-0.11371990815655061424
-0.14368927292958166841
-0.18947308372974303037
-0.16255401912049030622
-0.19571602141817823206
-0.94638392202183152513
-1.00000000000000000000
-1.00000000000000000000
-0.78418934571899279184
-0.78088202464434330885
-0.83682493434400317955
-0.15618820887155476784
-0.38210280353572612100
-0.34041923788150635355
-0.33540028062229332306
-0.72241883436551757036
-0.37795359815765638967
-0.26002374567053737620
-0.22197378638903658699
-0.25465513310447873696
-0.53882189078624609380
-0.49849286343826770818
-0.49110763878083124601
-0.27990573775649679744
-0.27247499569307270795
-0.31403549306843964173
-0.30895659541689601824
-0.22613520930390668129
-0.41574025249210255772
-0.41097358929118565918
-0.45842583869344488701
-0.08687140406662502423
-0.04510927376344150974
-0.06749647141999931543
-0.57246943471824007776
-0.55840272664481926945
-0.61117918536575555066
-0.16586862617724987268
-0.19808262919801333801
-0.19737332494655801529
-0.16421132264887008945
-0.11041299350297739679
-0.08326983976941067234
-0.11654611919601495784
-0.45104061403600848035
-0.07084996098776130680
-0.05181625289896549941
-0.09468620006775479991
-0.52475518271282528548
-0.88973120211789857859
-0.94486560105894934480
-0.89124952308078086993
-0.83530661338112088821
-0.21079193434625312364
-0.24906420708308701917
-0.21638286036764486919
-0.29872240035368574640
-0.30374135761289877689
-0.26204452008507816974
-0.24163346501966292967
-0.12502618276955992926
-0.10022996691650061518
-0.13139199301849546764
-0.06754304633418808934
-0.26725975788907541109
-0.33078955629516687553
-0.37564823599409313815
-0.33309491845873007154
-0.66746517202426081106
-0.67097469996182979024
-0.72592836230308654955
-0.37088157279317623960
-0.19570191824152538551
-0.16110720426427396768
-0.19154049532665529121
-0.09174990334295564376
-0.56249264150509836746
-0.56658255636537757649
-0.61526910022603475969
-0.16348791522076192018
-0.04917226830718806480
-0.02678507065063026604
-0.00846086753781902408
-0.03013856021839226088
-0.13392551138303235292
-0.10529700364557439962
-0.13558281491141213615
-0.61877862816360362785
-0.40456631352000077539
-0.44783697615041601070
-0.40776995140559324504
-0.94486560105894934480
-1.00000000000000000000
-1.00000000000000000000
-0.10276348528103751434
-0.51891786628307379203
-0.48527032235107980807
-0.47943300592132831461
-0.77667677844436922019
-0.83320399028113389939
-0.77877940154435632003
-0.26620321863549267771
-0.30080174962889300039
-0.26412386936028542372
-0.18962067508275026739
-0.15726756377646392004
-0.18402974906135852184
-0.72382573920309956073
-0.29849638746532980438
-0.24014169346601071942
-0.20930016279260094114
-0.20780839123894875864
-0.23492645566201347807
-0.15918738402036894386
-0.05042779597675434156
-0.03470100254153175162
-0.01758575218409800731
-0.44199965972066457276
-0.52300778114335289004
-0.37153535113533281420
-0.33144333463732345013
-0.33209711297947996922
-0.07000111764588126673
-0.06152105407233629530
-0.03977226837526191133
-0.36833171324974034455
0.01302163531723684112
-0.00530256779557440258
0.03450413817229270458
-0.10425961449403277348
-0.13268340937915337752
-0.13506412033564133002
-0.10477830906980359349
0.00522728824790900330
0.01891544403363703067
-0.01645040443266423263
-0.94319719384179623312
-0.88806279490074546690
-0.88639438768359235521
-0.02867901027967995758
-0.83153558306398078770
-0.07823017574345572656
-0.07569665737891882740
-0.05116334784133704655
-0.56672323861903572961
-0.56686392087269388274
-0.61891931041726189200
0.00066484592476951168
-0.18777060353823218919
-0.16100841825333758739
-0.16474927273021125473
-0.18627883198458000669
-0.24409133258900200802
-0.24201198331379475404
-0.22197944654251133834
-0.21489391889073006237
-0.66687102396319519748
-0.72177390120378226435
-0.66892286196251249386
-0.04546780810829947894
-0.30570900008700885309
-0.27341583125717172642
-0.28062844387885083064
-0.45678364769958335057
-0.51168310203248046353
-0.46810832681045583259
-0.30636277842916537217
-0.10959897202120584547
-0.13343326789883488970
-0.13535308814273991351
-0.44165391297913647595
-0.40422056677847273409
-0.40387482003694469279
-0.61686747241794459562
-0.10692929325761930948
0.05510897047067259136
0.07571380276905248508
0.03362646761561673137
-0.33900670782418540483
-0.37178651067209311787
-0.33555191040183268703
-0.51182378428613861665
0.04731462340134475614
-0.07599310748210705291
-0.04668921131863969926
-0.07547441290633623290
-0.04892627957998837290
-0.94319719384179623312
-1.00000000000000000000
-1.00000000000000000000
-0.76229452992471491424
-0.82434445880415363472
-0.76948565418454206721
0.00073684270487990415
0.01905943759385781561
-0.01035641539070204786
-0.43032923386826404943
-0.37144076393056502106
-0.71458277694395500035
0.03397491022320772713
0.00819457901955485991
0.02644517712842237717
-0.14240334265825937976
-0.12753912154005486723
-0.14614419713513304711
-0.25249779087931129018
-0.25935050475740195619
-0.23723861871091131426
-0.17641131600232790033
-0.18807335927444454593
-0.19794087525669665228
-0.26656311737908106041
-0.20502640290847795601
-0.11856904678063034941
-0.01812886509388362752
0.00351453818749465673
-0.02382440482692119513
-0.28810845673568036274
-0.29558846959250989483
-0.31384279128599490427
0.02651717390853277137
-0.31729758870834767759
-0.08770242278782067191
-0.08503274402423413592
-0.06580587355443551223
0.07318176059718155269
0.11185938302207039385
0.09378659289556143253
-0.56884333626617900048
-0.61785718011468704347
-0.56785362856943644161
0.01128698789067623595
-0.05624754243653760921
0.07623661505090190138
0.07675942733275131769
0.04783743568319417244
-0.51900719791584815077
-0.46396706132929288469
-0.47115047495900247432
-0.94415178904470320465
-0.88734898288649932674
-0.88830357808940640929
0.05536716877797952241
-0.82529905400706060625
-0.03043065168644031385
-0.00969795553154358114
-0.02819358342509164020
-0.38119381423773252004
-0.35851280843852034730
-0.40764822806905187669
-0.00309170867202446242
-0.34875975813135284831
-0.65129670068606559941
-0.70679561530539025682
-0.65908386232463045395
-0.15959503750731607319
-0.14098996191223789332
-0.15444080228442091940
-0.51999690561259070964
-0.17125708077943274654
-0.24498263879299753132
-0.22972346662459755540
-0.23746748670668377246
-0.19990654192919704579
-0.21173972458394954566
-0.21685958556323042812
-0.26279808610238147848
-0.27309838132545166678
-0.27686341260215124871
-0.61007001847612229994
-0.09364838717284719449
-0.11059375435645102392
-0.10162367959702651998
-0.28434342545898078081
-0.07972713036364134642
0.05325484735973663036
0.07253478449626553359
0.04579711104506167807
-0.22460360564531667293
-0.31064174390227000666
-0.32482422586322767799
-0.30311510674738995075
0.13381621925035561138
0.15577305547864084279
0.11574342912384666393
-0.38078659014533761118
-0.42596853255217004275
-0.41878511892246050863
-0.02610342291820798646
-0.04595464823632174761
-0.03639631711842384459
-0.36964969929192897924
0.10521380952691260224
0.13471381628477271941
0.10573662180876201855
0.04222467086591516483
0.06538990413797252099
0.03445222116273358864
0.07464710591450843258
-0.33457727617039517698
-1.00000000000000000000
-1.00000000000000000000
-0.94415178904470320465
-0.00322657201399682500
0.00324481150354993114
-0.02172219990754488406
-0.78531999973504063028
-0.83681178891222351979
-0.77380726482987771675
0.14524343588170679498
-0.67818301580578765897
-0.72023877286525128660
-0.66473985824592662919
0.06896234431711903423
-0.12537754900206898867
-0.12321597646408312399
-0.13882838937425201475
0.03448020288531612743
0.01239112367688627314
0.01899737053640539186
-0.01142930570732902766
-0.25820707471740123040
-0.25069192263108747154
-0.26391635855549117062
-0.10843218181846515924
-0.18867019302409321346
-0.17185391452908138632
-0.18926702677374188100
-0.48055756580180541970
-0.52470045103399221009
-0.47585402038040391925
-0.26850736994047141870
-0.20050337567884571333
-0.73175150777041420014
-0.61470290126287707722
-0.57347621905293377775
-0.57810910183968855502
-0.27951001956492543821
-0.28592165780439920963
-0.29075506369845455223
0.04993505351164432421
-0.06228828448974787352
-0.05877069542506023481
-0.07620954129895371465
-0.29828170085333460815
0.17079900598719865989
0.14884216975891342849
0.18582495649575644925
-0.04243705917163410890
0.10104132409033068918
0.12532322084791006067
0.09892900267208779019
0.01886250719443302928
0.13001851856634139004
-0.43010938672398357774
-0.38492744431715109066
-0.38906829848896462565
-0.21917522437813366509
-0.22661072417231778453
-0.23203910543950079237
-0.34310023473884243561
-0.31916470247071726529
-0.32768766103916452392
-0.35423712559225106755
-0.52933333382074698736
-0.62814605882273810700
-0.94705122680905873267
-0.89120301585376204834
-0.89410245361811757636
-0.83971122667657915883
-0.43481293214538502268
-0.27491900817994519013
-0.14718853483715990671
-0.15081466856079039918
-0.13520225565062152229
0.09640904521671822547
0.12028330593717090347
0.09283660503757171223
-0.20793887547302983276
-0.16822778080545089385
0.17620961013613833934
0.19664616479363586365
0.16567999053920429153
-0.24655912944774457940
-0.25565077218880538634
-0.25978356537214830624
-0.09655091402733309569
-0.09945344088181899689
-0.11133470867295106044
0.00760809120217664000
-0.00924766585801567280
0.00542645135286328600
-0.07911206815343961585
0.12280326339254048207
-0.24113074818056157156
-0.30569635765930847082
-0.29333631461037307231
-0.30075097141634693498
0.07292443254888351933
0.08045896095979451768
0.05746958192255532255
-0.69429741146802737006
-0.73980870560153400017
-0.68624021363690745900
0.03890598037440594348
0.04333175786349575953
0.02328828468352284534
0.20498392412700155996
0.22414289175824667066
0.18995797361844374285
-0.02618125226208279505
-0.04247597384357151840
-0.02614233759014539249
-0.31061697981560809634
-0.31059221572894613050
-0.31913993838405529946
-0.33019201769943584690
-0.35963015809420023627
-0.35548930392238675680
0.21039452827594126716
-0.32893983936930015766
0.15792693588859796350
0.18114005549242317983
0.15323163817016660637
-0.12332098785948944486
-0.59548352587398023505
-0.63683327083988394701
-0.58679631385683439504
-0.30567159357264650499
-0.00928658052995307709
-0.27177584913829366808
-0.27963533972109611003
-0.28277849876274763208
0.18889311014302950786
0.02546992453283620020
-0.94705122680905873267
-1.00000000000000000000
-1.00000000000000000000
-0.48747239917717283264
-0.49438723255254024558
-0.53624816719611434479
0.12029715900148250929
0.12031101206579411511
0.09285045810188331805
-0.84397798918908972787
-0.78958676224755119932
-0.79385352476006187938
0.06189535941164513860
-0.20244320823687397826
-0.21561938970000607552
-0.22111505693616193002
-0.26764305595495074819
0.10038498651279431639
-0.64489046867100374705
-0.43830095473556457408
-0.39255632107914417706
-0.39604434366932372846
-0.16281609076574837802
-0.17844364669433682158
-0.18385533673403936517
-0.74407546811404468023
-0.29019315556872149475
0.14676217696796695078
0.14928213442333651551
0.17324104799876297034
-0.05621297954145160203
-0.05365526365784296925
-0.07655435226983098307
-0.54493537921326029583
-0.25155511272681896351
-0.23703508871857517648
-0.24745945326483256843
-0.03991825795996288562
-0.44521578811093198702
-0.13587838152624059918
-0.14153345818170026682
-0.11766591120402980497
0.22122104298843497938
0.25661712948111348176
0.24038001061968006233
-0.19703151819717146243
0.17719055174559306121
-0.32549587219711567654
-0.35728208534304017885
-0.32784394494827573396
-0.31086413995691425383
-0.31927590049803938888
-0.31072817784293016441
-0.32052807882817502261
0.22681583438894575844
0.24056419787125116194
0.25698550398425568098
-0.23153942148241932197
0.04270097214559305521
0.04207018642769034394
0.02483913881493349241
-0.36077010793321973026
-0.94813026994612648046
-0.89518149675518532415
-0.89626053989225307195
-0.15716101411028871038
-0.00300215518604552214
-0.01459170372406415860
0.00230296800806555893
0.08045180379684643834
0.08044464663389835901
0.06188820224869705927
-0.84505703232615747567
0.20540290320765564047
0.21315595785826196851
0.22966575092288807336
-0.30354265548061065694
-0.30633433954487437889
-0.30846327763691028245
-0.26403960419934324744
-0.27242843620988110853
-0.27603188796548860928
0.14339846388640523078
0.16651362183563955810
0.14341231695071682273
-0.29145854234821005901
-0.29610475688227849700
-0.28554694103465305677
-0.60302425411014293211
-0.61056498234630562916
-0.65243119690716655512
0.16987733491720125034
-0.25994394473735682460
0.12160580606388658731
0.10103238351184054555
0.12095840906484034427
0.24332562745357189105
-0.02832870942194424396
0.01953401562082240916
-0.74647026881667066789
-0.69669221217065346874
-0.69908701287327956742
-0.09037407723762748424
-0.09491375905972324056
-0.07201467044773522674
-0.11312622938193403477
0.06125741653079434801
-0.55433915070943884373
-0.50379100404871890451
-0.51319477554489756344
-0.30859923975089431636
0.25709343596526579301
0.27333055482669921243
0.29004398017228494311
0.10102522634889246622
0.23499046128926751043
0.20411575464401524038
0.20806525839084533125
0.27351474207827031204
-0.40980435463728603906
-0.45209579359491314232
-0.40292434915330488376
-0.31411369911006148392
-0.31646177186122159686
-0.30273152602300734682
-0.30679783298996077257
-0.65482599760979254278
-0.30108387468460834357
-0.30141677795286975217
-0.30387555874887206553
-0.28194348927904555602
-0.20781730600000000719
-0.21171834785000304135
-0.19313047634716840051
-0.29643766015053990559
0.23232810610607779189
-0.22772610935000303645
-0.23983282899999999738
-0.24364614113241628290
-0.56187987894560165181
-1.00000000000000000000
-1.00000000000000000000
-0.94813026994612648046
-0.15314890276312032036
-0.17041942400000001379
-0.17443153534716843156
-0.32335117439692384611
-0.35969775903312378729
-0.32442352329701973357
-0.79307635297917211670
-0.84466844643571259432
-0.79346493886961699804
-0.46149956509109180125
0.16505825305300575456
0.16360288427037192327
0.14195694816808301919
-0.04327179977238362896
-0.04846353171511329910
-0.02313697747921457382
0.14260434516712924835
-0.74608168292622578655
0.19115545919660681395
0.19451917227816850620
0.21579729655757406981
-0.22382506750000000229
-0.26563680800000000204
-0.26903262210494055529
-0.25654813063241627136
-0.36657776451710494259
-0.06682293850500556354
0.04315362681382970550
0.04423706719996906706
0.02061745600696177072
-0.18911836500000001049
-0.30234098817877641530
-0.29834763681267845170
-0.30460588838479635276
0.07528252137375164577
0.05867635390072099832
0.07786358400382500933
0.22539387892342077624
0.25523504765376558989
0.26889492418444937982
0.28080434438464307867
-0.12860776800000001119
-0.13224307476312030518
-0.10949092261881374077
-0.25273481850000001359
0.30788494511723651925
0.29117151977165078858
0.32572591006218803988
-0.30053958141784287150
0.30477428734165223911
0.31950459451101953512
0.28824504924763760805
0.09707529745539889010
0.11765587717039299731
0.11370594827689940731
-0.14951359600000002636
-0.27849468460494053446
-0.28456093300000001589
-0.28800973767410503745
0.25789740283695528067
-0.29517089605968266364
-0.28761026609635798046
-0.30655306914673685625
-0.30548072024664091328
-0.61908222449472849469
-0.65908461868400403105
-0.61482360342051700641
0.05975979428686035988
-0.94821596951696740518
-0.89634623946309399667
-0.89643193903393492139
-0.57279941811247503392
-0.52411431471177105657
-0.53503385387864443867
-0.84475414600655351904
-0.30360510915776173224
-0.30114632836175941888
-0.30087587877064908559
0.30015446944783130689
-0.29876592847643490547
-0.29378681067410505889
-0.29611507900000000326
0.09449423482532552654
-0.27509887050000003672
0.00482253898607579255
-0.01922463039315391864
0.00091019190001513520
-0.43059272947344612303
-0.47189375250917187099
-0.42019854205536610881
0.02452980309302242937
-0.29961175779166376865
0.20669177872525942852
0.18514733149781567589
0.18660270028044950719
0.21124453764141676304
0.13974860616577269856
0.16074714526901537348
0.15789140626765882369
-0.73661972356749605417
-0.68962505351454983504
-0.68016309415581999165
-0.06336851948619182107
-0.08346523919999999930
-0.08691965821881374177
-0.29033800600000003733
-0.32943725377467242277
-0.36962080420597920316
-0.32639421408579816219
-0.57705803918668641117
0.13579867727227912244
0.26904878960930045384
0.24242304308343726182
0.25201962544928396825
-0.10603650359999999830
-0.64962265932527429868
-0.29036152737673620594
-0.28237541794079396018
-0.29255347198190062574
-0.48281329167604525310
0.26778882667362802206
0.29069576822131582006
0.30058719205798856144
0.34135993381354223786
0.35699395756489649134
0.32351896886859071722
0.33824927603795801323
-0.28499284201857599808
-0.38001499162405927290
-0.30070838897643487053
-0.29999999999999998890
-0.30043793938532453724
-0.29805753950000002384
0.09622154718904246673
0.07022930719450576342
0.08575203428139704931
-0.94821596951696740518
-1.00000000000000000000
-1.00000000000000000000
-0.29796572689336492390
-0.28009527274308199107
-0.27258027938980600169
0.28481799083364450764
-0.84459093148306574328
-0.79291313845568422991
-0.79274992393219645415
0.10496374773297093008
0.31076184597154449252
0.33011197103473272074
0.34071934755844590637
-0.03616100409999999793
-0.03971640193619181691
-0.01566923255696210313
-0.30100876658223918447
-0.73645650904400827841
0.20383708662818322832
0.20098239453110700037
0.18229263940073947570
0.17943690039938292591
-0.29589884864083570992
-0.29092181851102238976
-0.29463472766185039298
-0.05981312164999999514
0.04848195116803094562
0.05272683513609283112
0.02877468706108431140
0.24587338286180729363
0.22628258079353336107
0.23083533970969066784
0.25746108623555385986
0.32065326980821723390
-0.55025819292245281567
-0.56548253196626108164
-0.59228237823049478816
0.07447419116256764893
-0.28887542744530503303
-0.27940321807793166986
-0.28088931800936278727
0.13100000568926983835
0.15309273468464956736
0.14829406310164028326
-0.62282281306104048113
-0.46144040687925941269
-0.49823713037895189792
-0.44601656817635276786
0.35952579851028043656
0.39332568695837283324
0.37515982226163469004
-0.28516251829447702981
0.35422471073276873277
0.37296939225970715537
0.38894482695451787491
0.12225780514534137500
-0.26382929908627322790
-0.27571978259131557643
-0.27310235851353359404
0.36483208725648186288
-0.26820478923803958704
-0.34023696560327393312
-0.38541484753836002808
-0.33483710968897317795
-0.29805753950000002384
-0.29611507900000000326
-0.29849547888532457218
-0.94830635659921469482
-0.89652232611618210001
-0.89661271319842938965
-0.84468131856531292190
-0.51346146942276027492
-0.29351844875551119651
0.32367960690394531609
0.29636419825662285721
0.31213339948096696652
0.01207978200000000071
-0.01204061104999999861
0.00845116049303789620
0.03240330856804641418
-0.74366125951285177997
-0.68736784462466349321
-0.69457259509350699478
-0.40083868624126667290
0.22530320794658825756
0.24391463716791711436
0.22244851584951205736
-0.26772093217629366890
-0.26286158496278139163
-0.29614941936872690720
0.19683768952591501611
0.19269298452072305960
0.17529219539419094165
0.24489401001486221787
0.35728915308029213227
0.32893817256914037461
0.34900425031936899156
0.17049352381118165756
-0.59284937657675751410
-0.63650623536628869736
-0.57916595427150929787
0.28004451889921877505
0.29104024818913704076
0.26845681552547218107
-0.30154927528302766238
-0.27415493909884569579
-0.27266883916741457838
-0.26593446025689743140
0.09885098665868560786
0.07578891089738921949
0.09753626692386403729
-0.64371098583513219893
-0.26488187967158532965
0.40826664470748286195
0.42320760245659294618
0.39010078001074471876
0.30735992754654117842
0.34048437999211872418
0.40607621470555543830
0.14145846432538816684
0.11884000575721531678
0.14487626371351422505
-0.27617100334232741465
-0.28193030355887277461
-0.27293878860672315945
-0.25770567020914025846
-0.25333018005737389933
-0.24283106102847454300
0.36793443142277032498
0.39204717112080633701
0.39514951528709474360
-1.00000000000000000000
-1.00000000000000000000
-0.94830635659921469482
-0.84585033060044534370
-0.79391893596732887595
-0.79508794800246129775
-0.25284632299562798119
0.26747744267852707756
-0.49258694335084096672
-0.52903473765855102418
-0.47701367511505021746
0.12015472549203688735
-0.74483027154798420177
-0.29033800600000003733
-0.28456093300000001589
-0.28774137575551117507
0.37621933418369346569
0.06000770810000000122
0.03604374504999999923
0.05636727161804641617
0.21825912153888857303
0.23972524285729363003
0.23553584854667014570
0.21411441653369661653
-0.42547478627008283869
-0.36487306563209009891
-0.38950916566090626469
-0.54271815996379924041
0.07942934737934280454
-0.27874986080336161542
0.18893692985999527290
0.18518087519926748619
0.16673746915045389860
-0.26210417705104799291
-0.26883855596156513990
-0.25827389384519855442
-0.29853338123421424566
-0.25984569091396803042
-0.25682979686515461371
0.16331966976232781263
-0.26560634122596082918
0.44094590565546587513
0.42600494790635579090
0.45868420885433880407
-0.25625461789851544658
-0.24657477554013346177
-0.25520203731320334484
-0.44104805450587358795
0.45433386742423620408
0.42163934718937701174
0.43877073494041457513
0.37789361921444086789
0.35078661305919311975
0.36759138614736652784
-0.24470291828430401626
0.33502194725631195826
0.34636428760867860044
0.31870226789890782060
-0.59928115557791827861
-0.60571293457907904312
-0.65014276483629296344
0.41380087835600803947
0.41069853418971957737
0.43245224142492133534
0.28036616461062152661
0.26214040088926932048
0.28570320639987928368
-0.94791848925810540116
-0.89622484585732009599
-0.89583697851621091335
-0.84546246325933616106
-0.23289216633243378651
-0.22295327163639303003
-0.24290742829958722471
-0.33780500987853828709
-0.31316890984972212131
-0.28610085409617030949
0.44339305442457876971
-0.74720698155685716380
-0.69694930510238006782
-0.69932601511125314087
0.25795100657864583615
-0.27146532548066248935