VARIABLES = "X", "Y", "P", "U", "V", "divergence", "vorticity"
ZONE NODES=7045, ELEMENTS=13692, DATAPACKING=BLOCK,
VARLOCATION=([6]=CELLCENTERED), ZONETYPE=FETRIANGLE
-1.00000000000000000000
-0.95936312594269956833
-1.00000000000000000000
-0.91872625188539902563
-0.95936312594269956833
-1.00000000000000000000
-0.93778694504538984145
-0.87557389009077968289
-0.89715007098808929875
-0.90972040008738785932
-0.90071454828937669301
-0.95035727414468840202
-0.86909937931979008852
-0.84752319842248047266
-0.81947250675418126242
-0.86009352752177892221
-0.95035727414468840202
-1.00000000000000000000
-1.00000000000000000000
-0.81484740081410844681
-0.75412091153743709970
-0.78679670914580923657
-0.83772465873319279517
-0.79710363796559513538
-0.77473476917700889732
-0.89767669231442259736
-0.89463883633946850171
-0.94731941816973419535
-0.83468680275823869952
-0.72627574286683205251
-0.69843057419622711635
-0.75895154047520418938
-0.73658267168661795132
-0.94731941816973419535
-1.00000000000000000000
-1.00000000000000000000
-0.69529244675942980525
-0.63646398198142251079
-0.66744727808882475806
-0.79545254244182295178
-0.84504568939064572675
-0.78509365580941592455
-0.70519745338113293265
-0.66704535589074198665
-0.63566013758525685695
-0.89832426879390636643
-0.94916213439695318321
-0.89648155256668737856
-0.84688840561786471461
-0.74044196659329220012
-0.73008307996088517289
-0.68543139074476144845
-0.66054576416500920821
-0.63861725986684159118
-0.60763396375943923289
-0.57880394553745595498
-0.60723204156135635046
-1.00000000000000000000
-1.00000000000000000000
-0.94916213439695318321
-0.80019685975636856146
-0.84926056427513740843
-0.79782470109909575662
-0.55158661334497549600
-0.58041663156695877390
-0.52436928115249503701
-0.75741847050804789188
-0.70240789465951714021
-0.71938439857427283197
-0.59929794949924342085
-0.56293576141322998474
-0.62418357607899577211
-0.75979062916532069671
-0.54946001386441523096
-0.52011608219137450693
-0.57788810988831573745
-0.94979911017657059347
-0.89896124457352377668
-0.89959822035314107591
-0.84989754005475481868
-0.54152592180230230134
-0.49689172368246270484
-0.46941416621243037266
-0.52410905587494316382
-0.65556653313132962069
-0.62570167551789790394
-0.67254303704608542347
-0.59431871846556394434
-0.49476512420190243979
-0.70381256236862510534
-0.68824072616297737870
-0.74421879295967297008
-0.94979911017657059347
-1.00000000000000000000
-1.00000000000000000000
-0.84903377292577064672
-0.79933309262738450052
-0.79846932549840032856
-0.65697120084043758581
-0.47171260727806429980
-0.41905593340363350707
-0.44423504980803196762
-0.74335502583068890914
-0.49148505415407717223
-0.46285402611677983753
-0.51289489376500485562
-0.44343006797425033039
-0.41744596973607034363
-0.46878102596372239752
-0.57569837762689579641
-0.54431542057456194783
-0.52569507973589379990
-0.94990688012231383475
-0.89970599029888431719
-0.89981376024462755847
-0.44014999792642506282
-0.84914154287151388800
-0.62855597982324495909
-0.59728645450070527723
-0.56887123348351265051
-0.52378782968966608458
-0.47374696204144095546
-0.48463989796610212890
-0.50516748885099793664
-0.41912577038722220735
-0.39394665398282374680
-0.36883737456201398652
-0.39314167214904216507
-0.70096664738950464901
-0.74971798644395248878
-0.69460368677624106937
-0.54728315660970316969
-1.00000000000000000000
-1.00000000000000000000
-0.94990688012231383475
-0.60062706376346652881
-0.64443389496322200927
-0.58474914862348958966
-0.80030508597968552653
-0.85005942311215654250
-0.79938720573904298305
-0.39278160435612341495
-0.36811723897617643075
-0.41548563254647813414
-0.65079685557648558891
-0.75063586668459514328
-0.34465942341377819869
-0.36976870283458795896
-0.32048147226554241085
-0.45544859043753738170
-0.44455565451287620826
-0.42625728290897257899
-0.51591439560902818684
-0.49432631873521881705
-0.46295755773454383419
-0.34567191312827294514
-0.32250645169453190375
-0.36997621071530112369
-0.46355745449446550399
-0.44247501102282887908
-0.48408504537936136725
-0.39718726094257450487
-0.34531184533535419501
-0.94972411150054414364
-0.89963099162285797838
-0.89944822300108839830
-0.84987665449038696242
-0.55311428866339062971
-0.53723637352341380158
-0.50560151356331484163
-0.45271628437868638439
-0.43436614696590070128
-0.60552781504369490584
-0.61042856632392328287
-0.65569760685671396594
-0.48427953564892933791
-0.70250039469815950266
-0.75140274033892251460
-0.70173352104383202033
-0.29795950199600340635
-0.27543753172646440186
-0.32213745314423919419
-0.29897199171049815281
-0.65646448051104133725
-0.39890131145328439066
-0.36983128948688631654
-0.37154533999759620233
-0.94972411150054414364
-1.00000000000000000000
-1.00000000000000000000
-0.32249198667614742408
-0.29968659303532518834
-0.27686673437611847293
-0.40701017551021256846
-0.52096387333875182613
-0.56079546855110917747
-0.51328269345103327836
-0.79899988154670853469
-0.79769467711373165386
-0.84857145005740997057
-0.56569621983133755450
-0.75009753590594563377
-0.42124342892322164111
-0.41100215556736413580
-0.37952930011189939252
-0.43109410416131710431
-0.46834780886231597297
-0.44702583094793046925
-0.27436326372921360228
-0.22824505519288479372
-0.25184129345967459779
-0.33555633124953598845
-0.33384228073882604715
-0.29956732250147571905
-0.28821702843879709599
-0.37553732005474782518
-0.25546982709557697344
-0.23550212246468960053
-0.27900428707961077990
-0.25618442842040400897
-0.60834753045391587456
-0.60626649458390857728
-0.65438344464103403997
-0.89712262386707797290
-0.94856131193353898645
-0.89828542343408313009
-0.41948189266310292878
-0.37776776385178068018
-0.37600622759166202336
-0.84740865049040481338
-0.40355016587648956383
-0.47926807021934658692
-0.47158689033162815019
-0.43757226709994140323
-0.56557640688888843883
-0.52084406039630271046
-0.52072424745385348377
-0.43433318563062928153
-0.69308169915882689160
-0.74538818813627927273
-0.69779104692849314162
-0.56349537101888103052
-0.30803593716517591039
-0.34378261863853765146
-0.33979063858138602860
-0.23148346159888422147
-0.20788722333209441739
-0.18752939147130404107
-0.64967409687136767893
-0.30380162983332581472
-0.21151575696799682080
-0.25210317936808984696
-0.22733962436006119323
-0.26345347343076847002
-0.20949714187377269092
-0.24318193812494559580
-0.22249963216923113185
-1.00000000000000000000
-1.00000000000000000000
-0.94856131193353898645
-0.78936428343293141285
-0.84324345365000463737
-0.79352948027333147785
-0.43637571783270734382
-0.43517916856547328441
-0.47807152095211258302
-0.47795170800966335634
-0.21841838311691694208
-0.34169467483397453211
-0.34345621109409318894
-0.30738312207628704087
-0.74122299129587920774
-0.39730355102295483727
-0.36975961273812729679
-0.36351299788459257023
-0.40054263249226695898
-0.30770952962073150339
-0.16453086722141968545
-0.18488869908221006177
-0.14153234297153535759
-0.51563993723697709726
-0.51055562702010071074
-0.55841106080200464401
-0.26953671214201674333
-0.23950610178255776761
-0.27377101947386683900
-0.64163537457599673086
-0.59822777228853762921
-0.59018904999316657012
-0.23342286307130949430
-0.16879152074219194724
-0.15005365001307988115
-0.19277788623888475472
-0.17977539594342628604
-0.94682754474546870771
-0.89538885667900769416
-0.89365508949093741542
-0.84150968646193446965
-0.55037233850663369594
-0.29611241392437831488
-0.33605932075802014136
-0.30174776800033265012
-0.39510307544028483440
-0.35263388378062826556
-0.39390652617305077499
-0.32981270590448541480
-0.35807344083261039014
-0.47345541704746141320
-0.43068287760327128577
-0.42618658664106934264
-0.66666255328583245987
-0.72801341835938193636
-0.67987212622232973125
-0.18567295966431041077
-0.16184877745484815836
-0.19459420090745466192
-0.46837110683058502669
-0.27430812686267802558
-0.24058031656018014077
-0.27398171931823356307
-0.62842580163949945948
-0.12245410810843884719
-0.10337587324534235067
-0.14545263235832320281
-0.24004320917136895419
-0.12671476162921110897
-0.15595121373396403364
-0.20076534022130521073
-0.17419105608254920048
-0.20684857893255348404
-0.94682754474546870771
-1.00000000000000000000
-1.00000000000000000000
-0.78596827152457482413
-0.78257225961621812438
-0.83811367455357776990
-0.16801991676869867942
-0.38831703068635187170
-0.34704438829392936228
-0.34145489280723045900
-0.72461740645102534764
-0.38382073972414987306
-0.26939532723246001344
-0.23140753238863298602
-0.26375997315650567820
-0.54269722816502752316
-0.50288051667849453796
-0.49520540633688842069
-0.28801975025200299285
-0.27992708657962772634
-0.32172004223211014828
-0.31628048518012796819
-0.23599392447440656340
-0.42097829390157104346
-0.41577000116207274427
-0.46316281409108672751
-0.10049314483713082946
-0.05945394670272630827
-0.08141490997403433294
-0.57600747376334615613
-0.56182589753352574213
-0.61424422540967915651
-0.17702322680474996686
-0.20880177168246505381
-0.20826466429365386723
-0.17560714144364958367
-0.12323543544691750729
-0.09641722088075514729
-0.12913299916780165977
-0.45548770374948055473
-0.08457988446278612293
-0.06578389568022989520
-0.10791877284665488124
-0.52851565193520710917
-0.89055397707839600852
-0.94527698853919805977
-0.89210453328466665646
-0.83656311834730701094
-0.21826840889657189715
-0.25719041141047510601
-0.22483797064260244158
-0.30441184225098755212
-0.31000133773768645540
-0.26736879169474464524
-0.24909774773809981174
-0.13736898331489610925
-0.11288918917494407401
-0.14354012262874663031
-0.08110055828049252125
-0.27364793913718621354
-0.33552694140105288056
-0.38085676402106111160
-0.33849091710414169754
-0.66998770460555490125
-0.67331285592527745365
-0.72794255777074778901
-0.37564847128156281242
-0.20577794937540708209
-0.17097558219063402341
-0.20119155728963350471
-0.10465320502784961065
-0.56571784637075006597
-0.56960979520797438980
-0.61813617424690336932
-0.17399940449769199513
-0.06338120491123215572
-0.04142024163992413799
-0.02338653657712196424
-0.04458521612867592798
-0.14576372188951108866
-0.11733638769647299072
-0.14717980725061147185
-0.62146132556662592172
-0.40841735982309002040
-0.45181138307998924830
-0.41209368049258138234
-0.94527698853919805977
-1.00000000000000000000
-1.00000000000000000000
-0.11511278843570853236
-0.52237586958378623425
-0.48906562398546754578
-0.48292584163404667086
-0.77827016432369056087
-0.83441207070104328469
-0.78042121196995428711
-0.26950388382311363245
-0.30547938831517207348
-0.26843633775892916660
-0.19800364141881710012
-0.16459975044900118646
-0.19143407967278652793
-0.72579151012448406277
-0.30251541261208325651
-0.24605677430518269055
-0.21522743546365474820
-0.21218646203073762702
-0.23977762686274112225
-0.16778766631981761881
-0.06415427170065214624
-0.04883760910038952019
-0.03189132252054913824
-0.44567160072856837338
-0.52626781842101055808
-0.37563159487760822142
-0.33551006499709823405
-0.33549318859314364305
-0.08319209034958768845
-0.07495610620249322509
-0.05349499152423129594
-0.37195527420811680397
-0.00232785169844883927
-0.02036155676125100955
0.01873083318022428570
-0.11455641269679769922
-0.14276599744371587519
-0.14578981975077381916
-0.11594640019663535191
-0.00983848916165585598
0.00370955825381025141
-0.03103716871320982146
-0.94360890128285490608
-0.88888588982205285483
-0.88721780256570981216
-0.04269315702239021709
-0.83274398344470013100
-0.09077526816343373106
-0.08855166890266927271
-0.06421414863039445753
-0.56961716574716547701
-0.56962453628635656422
-0.62146869610581700893
-0.01409088213336944298
-0.19344546538107093570
-0.16661113615728556647
-0.16862252186556994649
-0.19040449194815378675
-0.24643231521325742461
-0.24536476914907293101
-0.22336074660340121678
-0.21777360431706943578
-0.66914680233836709711
-0.72370848333102877348
-0.67122982913182227538
-0.05885457007731287327
-0.30904937685011091286
-0.27603784806114128880
-0.28257181229916894516
-0.45977347457691442045
-0.51469163489244440512
-0.47134965810548057341
-0.30903250044615626635
-0.11676095300411958033
-0.14068035172656037646
-0.14386826759737680881
-0.44495467798160925899
-0.40770043707613090600
-0.40698351432917184711
-0.61938566931236183066
-0.11565868285045863284
0.03901878927995999780
0.05930674537969571336
0.01796010440128687630
-0.34132442658164113825
-0.37487089320236555157
-0.33840880758739239065
-0.51469900543163549234
0.03150815181675298282
-0.08751605265649475829
-0.05769571761651651892
-0.08612606515665710560
-0.06095493312345548476
-0.94360890128285490608
-1.00000000000000000000
-1.00000000000000000000
-0.76401787148392885651
-0.82561783702481927882
-0.77114401790380970869
-0.01378612094558173858
0.00431908062938566022
-0.02458795544742281916
-0.43337849445304310603
-0.37415397045540649268
-0.71658233691114792130
0.01875955676227530206
-0.00656588287913691809
0.01123455750804277717
-0.14799937299519494438
-0.13139899554138870230
-0.15001075870347932439
-0.25329653218212655474
-0.26140020800262009359
-0.23832863939276388576
-0.17905583608688044328
-0.18948915030819094008
-0.20083780616946428355
-0.26793417224064774995
-0.20642494845579606455
-0.12407997427275413438
-0.03202119275595124992
-0.01054739398767120737
-0.03738077130903283418
-0.28960292528184494731
-0.29663403826452094947
-0.31606361342883226850
0.01153931869583048157
-0.31897923242308101610
-0.09494112513596156266
-0.09383885498230062905
-0.07312129726780355887
0.05666859910886321017
0.09460636503750213810
0.07695655520859892573
-0.57161535897816018181
-0.62038108065826369497
-0.57061994763225842853
-0.00311415667914277357
-0.06540850744216003543
0.05998438755158885805
0.06066202972348199579
0.03218579398864612057
-0.52180673147265843603
-0.46688120061793736415
-0.47398892665896025234
-0.94458106079214743112
-0.88818996207500244822
-0.88916212158429497325
0.03971079324287864892
-0.82658999653411191488
-0.04322455071529832105
-0.02223495280020218456
-0.03996533520835934827
-0.38375224288770404257
-0.36052097144623629354
-0.41014722301157535700
-0.01639117339393669770
-0.35092269901393868814
-0.65374137152776246040
-0.70887962150584571397
-0.66144408693306477875
-0.16248927711398392093
-0.14387751395189329884
-0.15635603236239786762
-0.52280214281856018932
-0.17292259133529441772
-0.24558595341464523054
-0.23061806062528256156
-0.23787537464716390634
-0.20096662152000763224
-0.21244409273182432440
-0.21790241966761275672
-0.26350972104383385552
-0.27372290990554115631
-0.27814736110235505073
-0.61267836525296126560
-0.09772222557474159743
-0.11456061055806515681
-0.10724158928943058888
-0.28517847408503105289
-0.08542176142127258509
0.03776428670779317237
0.05676901665331104269
0.03054404864134835015
-0.22515973368949410149
-0.31113998759392424986
-0.32623220708778266630
-0.30388701292922259967
0.11616724197887072501
0.13772811892023931191
0.09851743214996751263
-0.38289393991247183680
-0.42844143328571604457
-0.42133370724469310087
-0.03370093663602912598
-0.05341111695191634590
-0.04569832712627282245
-0.37170745567935403741
0.08837902919457282791
0.11745131300944994246
0.08905667136646597259
0.02727948283233319268
0.05023988503528072774
0.01984624552380476192
0.05871552318839651924
-0.33583047952008027170
-1.00000000000000000000
-1.00000000000000000000
-0.94458106079214743112
-0.01475215276125091228
-0.00726935272229963913
-0.03248253516940807772
-0.78704828282018435281
-0.83810520220223971855
-0.77553307715205654915
0.12758971596484464106
-0.68063389224198311833
-0.72232588186295598742
-0.66718763188487284488
0.05350445084429588521
-0.12861224431041479166
-0.12582549307944088102
-0.14109076272091936044
0.02146826535319761031
-0.00038334372350228713
0.00546043568276320147
-0.02048514467916438125
-0.25874822562884780552
-0.25103764686136653683
-0.26419991907556911181
-0.11177385932709124616
-0.18970899748361447212
-0.17314243851071792202
-0.18992884465903800417
-0.48368417305548933038
-0.52764976601682478385
-0.47883654985722479136
-0.26896141449055510630
-0.20118646869543116429
-0.73384108753108368006
-0.61741388671393360177
-0.57635088043913240696
-0.58108640190010474313
-0.27995827537246370520
-0.28619364083938625409
-0.29141383955195360178
0.03585407519423916556
-0.06835254629499792900
-0.06358379532219229913
-0.08065301044846695522
-0.29866681421665525198
0.15235676418715476954
0.13079588724578616876
0.16698540945407019942
-0.04864236597911071602
0.08457062272949879278
0.10847921573551558283
0.08262411619441331623
0.00709945631544898516
0.11296526437248276264
-0.43278131680428133521
-0.38723382343103718295
-0.39157370694960247359
-0.21967086194364537910
-0.22689763115546646155
-0.23238650290131518394
-0.34449467825202922944
-0.31980418632587320760
-0.32846838505782216533
-0.35568116248514702882
-0.53238528747779700900
-0.63086014707104398624
-0.94750429528470503371
-0.89208535607685246482
-0.89500859056941006742
-0.84102843669479721012
-0.43762894000254592974
-0.27519677995747771071
-0.14851265239156233311
-0.15243434237698011424
-0.13716907273550160706
0.08020216598881521608
0.10363531532431939641
0.07693760017980005861
-0.20841323790725224674
-0.16922074852530016864
0.15782575337837403961
0.17792338783650876732
0.14768735042297936877
-0.24683833087530146488
-0.25580128710343902343
-0.26000060308950406762
-0.09980859530461633211
-0.10189496503449106679
-0.11386022905696596697
-0.00012622944190093113
-0.01691358303896502852
-0.00369779108210028509
-0.08273938017834167602
0.10605726552991748268
-0.24134945912945274249
-0.30598635804196128163
-0.29351318466469233925
-0.30083272848999836890
0.05861126599348275013
0.06698264695168477945
0.04422545615244119488
-0.69690322980550900578
-0.74197575631284662379
-0.68876856102374606206
0.02709252093659432828
0.03271677651999104625
0.01272371189884570312
0.18572759112087719457
0.20446977278768418973
0.17109894585396173694
-0.03193022672544205964
-0.04775701102381717938
-0.03281558168073558934
-0.31097137629404913994
-0.31080276499417397451
-0.31963557502599804216
-0.33120878765140610023
-0.36139124730050431467
-0.35705136378193896851
0.19119658031209646465
-0.32983858635461416053
0.14022741965736618130
0.16300352630528239239
0.13574137102039898761
-0.12520380871302669301
-0.59871582639169962370
-0.63967485931684131550
-0.58990111414590218342
-0.30581774674208617171
-0.01602822808367149535
-0.27196686328250463394
-0.27973380748944015606
-0.28296372416441317732
0.17046345707089557986
0.01629527353904505760
-0.94750429528470503371
-1.00000000000000000000
-1.00000000000000000000
-0.49084216576017580813
-0.49800015846486228588
-0.53954328018248354226
0.10407813134840787628
0.10452094737249637002
0.07738041620388855235
-0.84536453602413264008
-0.79138438214951989380
-0.79572048147885532376
0.04984971173583790938
-0.20286668581937633560
-0.21580452697971469478
-0.22135107906759057816
-0.26776754729643958974
0.08575179716209058167
-0.64780952809860425923
-0.44149840002143930784
-0.39544316696849590720
-0.39931262698738928529
-0.16367007635399183352
-0.17882750031642130617
-0.18437817248772964129
-0.74631185564218216477
-0.29028326798971926248
0.12941347689709853386
0.13183542710269663401
0.15519163846987768518
-0.06036038713381224052
-0.05713697894543218886
-0.07951597198996163129
-0.54835799242828098254
-0.25167015065611453295
-0.23721832268212825201
-0.24753901420879004247
-0.04453360283543712772
-0.44865639272612578559
-0.13669948252254540688
-0.14260606745705387000
-0.11929722377851822990
0.20154053613599137718
0.23609566281791252718
0.22028271780279834458
-0.19731601364806800047
0.15909758238758003879
-0.32711986067592779825
-0.35934678381276513592
-0.32916432416366692149
-0.31108850828368406205
-0.31977844667075311369
-0.31094563663892904604
-0.32114864796754505338
0.20726824053367581824
0.22054143300926351556
0.23661309323084284140
-0.23167177059425236862
0.03337757803483180907
0.03403837954967257190
0.01695607505388582043
-0.36321624383165851402
-0.94862963556130486253
-0.89613393084600989624
-0.89725927112260972507
-0.15776349141948337040
-0.00810307946102174076
-0.02001665309323190020
-0.00411465445146133590
0.06834134189080076638
0.06970003682991676719
0.05120840667495391019
-0.84648987630073246891
0.18659516855560709381
0.19405509932122028127
0.21018681080593182298
-0.30361833711610020092
-0.30640394574220203294
-0.30860335536818800373
-0.26413545426693707530
-0.27246962143043507165
-0.27610171445993758610
0.12621299825559986751
0.14879068118688035249
0.12665581427968836126
-0.29147855213022538790
-0.29615564031011187840
-0.28560617980983277198
-0.60639184069146168099
-0.61406785499122362726
-0.65548554239836631652
0.15199115982837901884
-0.26000431781961252931
0.10810830455008234308
0.08754547575088356126
0.10631462596128934961
0.22339995201838733219
-0.03262002920322696481
0.01296765004432541557
-0.74883746225773117899
-0.69942883642105802000
-0.70195444303660703422
-0.09172719368921077032
-0.09681107936185091856
-0.07443208631732148306
-0.11421333810587808166
0.05186920818979466608
-0.55800333724071671249
-0.50764550327729796031
-0.51729084808973369025
-0.30874622701294307525
0.23662284259069410464
0.25243578760580825948
0.26877591239370401954
0.08890417068999956207
0.21527105509843993958
0.18523134678415881238
0.18913729070186116599
0.25269450281227345823
-0.41398998295648770096
-0.45599507071067502118
-0.40665130497193846537
-0.31509072286715006372
-0.31713518635488924247
-0.30306158505837232919
-0.30707504667102819562
-0.65801114901391533074
-0.30113424425491142067
-0.30143576001982441692
-0.30391985288101319718
-0.28197408678033020202
-0.20781730600000000719
-0.21181091648985733711
-0.19332240315821064280
-0.29645715607502487465
0.21272893295218586740
-0.22781867798985733220
-0.23983282899999999738
-0.24368592160439500605
-0.56567935154047865876
-1.00000000000000000000
-1.00000000000000000000
-0.94862963556130486253
-0.15355945326127271033
-0.17041942400000001379
-0.17462346215821067386
-0.32616288523394615373
-0.36273775611066771951
-0.32664137295493700375
-0.79517641164929586672
-0.84621784138595279590
-0.79544844656407565076
-0.46564041552311069561
0.14812766163617008264
0.14746464208545981278
0.12599279472897809140
-0.04535431187103455830
-0.05124564540823337011
-0.02672869566602814953
0.12778647331777107099
-0.74856542734295139496
0.17258069900320527346
0.17578117764470393980
0.19637071681953019442
-0.22382506750000000229
-0.26563680800000000204
-0.26905321471521753685
-0.25658791110439505001
-0.37007643409521695510
-0.06854075278012267125
0.03629888173588041028
0.03855938392208824866
0.01522815223053325395
-0.18911836500000001049
-0.30239791989149744644
-0.29839189404079280443
-0.30474020116223843324
0.06692371050323317472
0.05048104502645286984
0.06831187366657497095
0.20582088595898506700
0.23505436485140257519
0.24826750606385808440
0.25992191889687332740
-0.12860776800000001119
-0.13265362526127272291
-0.11016748084460539769
-0.25273481850000001359
0.28621326472159541732
0.26987313993369965726
0.30365061704948681509
-0.30072673954958256681
0.28323589261164827668
0.29769587282959247831
0.26715448303021765986
0.08650970537628754897
0.10571383923637034385
0.10331937392265834463
-0.14951359600000002636
-0.27851527721521751602
-0.28456093300000001589
-0.28801974256511270189
0.23759648699765661961
-0.29567888516341167549
-0.28829618526845107729
-0.30770802297218946553
-0.30722953525119861551
-0.62283033824110389798
-0.66239239063885546610
-0.61844909661616376262
0.05274154721266070822
-0.94877375380022754836
-0.89740338936153241089
-0.89754750760045509672
-0.57677062688504365795
-0.52838212343429868945
-0.53947339877886379966
-0.84636195962487548172
-0.30364664980081090828
-0.30116255693962212803
-0.30088935385941978362
0.27880889586323287510
-0.29877541950991221009
-0.29379681556511272333
-0.29611507900000000326
0.08512154221294576661
-0.27509887050000003672
0.00212786947516142248
-0.02161322119793656835
-0.00298760499293015914
-0.43559616062817746451
-0.47644350435895554963
-0.42479307179233261049
0.02034362669862483514
-0.29964062395010626627
0.18833334263716322576
0.16789899236131150539
0.16856201191202180301
0.19235202972834669621
0.12643564295268250319
0.14611381172037124498
0.14476298135528267719
-0.73937066966193287776
-0.69275968535558851702
-0.68356492767456999982
-0.06440977553551727186
-0.08346523919999999930
-0.08759621644460538481
-0.29033800600000003733
-0.33371528362914332222
-0.37385263329281548383
-0.32993908443154473797
-0.58115186850998390433
0.12404117763897051785
0.24792104030156106309
0.22214587856054562875
0.23159604770000050133
-0.10603650359999999830
-0.65319763295783694890
-0.29044657139764357145
-0.28250124875449433848
-0.29278141690643333384
-0.48753477970352065984
0.24709265803931607097
0.26941808993853277876
0.27891426098019223012
0.31899500164997363072
0.33433938625046050186
0.30155764932208228846
0.31601762954002649009
-0.28539871701147268013
-0.38465572212866039337
-0.30071788000991217515
-0.29999999999999998890
-0.30044467692970988626
-0.29805753950000002384
0.08958477962816527307
0.06407208177512675740
0.07825424506569922389
-0.94877375380022754836
-1.00000000000000000000
-1.00000000000000000000
-0.30019885130278645136
-0.28126550132003891314
-0.27423481737162680449
0.26341765064087663273
-0.84631933053457797378
-0.79513378255899835878
-0.79509115346870073981
0.09645207677541181579
0.28921129279723278849
0.30809826976359233619
0.31850066669759224958
-0.03616100409999999793
-0.04075765798551728158
-0.01701656731241928816
-0.30397505050038509111
-0.73932804057163536982
0.18673613726537208191
0.18513893189358091029
0.16630178698952036154
0.16495095662443179374
-0.29590617456474210822
-0.29092299527006443283
-0.29465744465542864639
-0.05981312164999999514
0.04410947450854831031
0.04965956509500837890
0.02589371728508490025
0.22595779072612776073
0.20714556668164549325
0.21116425377282899145
0.23693941551384439803
0.29870746383889223985
-0.55475155211907190012
-0.57002970545928000057
-0.59643002185019189376
0.06962217236158682598
-0.28890835237035106253
-0.27942481069990932063
-0.28096302972720182956
0.12092858145548335269
0.14165038517179551203
0.13853778898830837463
-0.62679731656692494468
-0.46691872178713522690
-0.50319606028299945777
-0.45125744120765631795
0.33681431725682164924
0.36997801746415648338
0.35215870185730846487
-0.28517390298498690449
0.33185283951483224296
0.35017459622526625473
0.36600980620007200761
0.11406128430823682385
-0.26418696113998302311
-0.27624157320421705020
-0.27334410494723870855
0.34225523644883215635
-0.26921088925580494156
-0.34603244367017377270
-0.39081430214917561861
-0.33987386364965854746
-0.29805753950000002384
-0.29611507900000000326
-0.29850221642970986569
-0.94892127419730687432
-0.89769502799753442268
-0.89784254839461374864
-0.84646685093165729974
-0.51847421362320766924
-0.29351903713503224580
0.30068347990071025988
0.27430226010113567536
0.28979887044045127276
0.01207978200000000071
-0.01204061104999999861
0.00710382573758071116
0.03086967354750418807
-0.74663937681641379118
-0.69087626391934842118
-0.69818760016412684255
-0.40647558272865447204
0.20696550857568501991
0.22559767451420678630
0.20536830320389384830
-0.27020847900053401869
-0.26618214062944117737
-0.29994871212929224980
0.18255708374684243012
0.17997523560010392218
0.16236910847769331356
0.22577773262016725964
0.33410429768939625683
0.30650927933479421572
0.32630248219349422545
0.15925651229420614841
-0.59748891388558067472
-0.64052692078007533727
-0.58375930967243028213
0.25891253274393266626
0.26990402518630429718
0.24793090795621602895
-0.30610729214980747503
-0.27427368376489286161
-0.27273546473760035269
-0.26604611877529138475
0.09581427434234185414
0.07273691971867511652
0.09269952698525356360
-0.64783825702485375864
-0.26511653995763717617
0.38471434068829701847
0.39945066391243760906
0.36689502508144905546
0.28529375254350730629
0.31739388879505325836
0.38273023505625480833
0.13522455995565552112
0.11240466979191039709
0.13688117447198194787
-0.27618393060920387594
-0.28193302289428145979
-0.27294305051849848676
-0.25893981972191942864
-0.25391589160609756570
-0.24364482207221208054
0.34526183830675305497
0.36901640805799296174
0.37202300991591386037
-1.00000000000000000000
-1.00000000000000000000
-0.94892127419730687432
-0.84773463790328906775
-0.79635894044033250783
-0.79762672741196427584
-0.25491348135082664284
0.24775084985025552786
-0.49822385537834168456
-0.53412678041881078705
-0.48257128858273845573
0.11551941714899868763
-0.74790716378804555919
-0.29033800600000003733
-0.28456093300000001589
-0.28774196413503222436
0.35306365380265503084
0.06000770810000000122
0.03604374504999999923
0.05483363659750419006
0.20257181673451268855
0.22280118804482562656
0.22000470157544449457
0.19998996858777420838
-0.43147595197366445108
-0.37103281291518375173
-0.39603318216019367526
-0.54785638463196117964
0.07791099122117092768
-0.27875199175924925132
0.17786374292979789669
0.17575225025949189894
0.15714501962390015066
-0.26219235761667764040
-0.26888170357898660834
-0.25833859645806389604
-0.30370517675367941779
-0.26378002523331312013
-0.26137790983718506288
0.15548840510757372391
-0.26564082348828121916
0.41683953160586428854
0.40210320838172369795
0.43422839929929091252
-0.25643110074808217469
-0.24681608272087299238
-0.25550152193042802162
-0.44712851876926767991
0.43015295815880683072
0.39808138217943944692
0.41480181103562219214
0.35342240888466353033
0.32705294439268689510
0.34376335328702989358
-0.24523045239654253646
0.31196787381851143195
0.32325226773631265953
0.29657814646130847835
-0.60404090630831086539
-0.61059289873104105606
-0.65439024944758394930
0.39041419124392906514
0.38740758938600816652
0.40880537257194432543
0.26198039075721812896
0.24378903263571244375
0.26594220797176121307
-0.94859254553139771282
-0.89751381972870458714
-0.89718509106279542564
-0.84740590923737979523
-0.23426726200565239910
-0.22488970193909274542
-0.24553592128426696140
-0.34435205699257659395
-0.31935168774756661492
-0.29267093182495951265
0.41947916536537555032
-0.75040699643068542457
-0.70068743280676670793
-0.70318726544940657330
0.24099254616633131176