VARIABLES = "X", "Y", "P", "U", "V", "divergence", "vorticity"
ZONE NODES=7045, ELEMENTS=13692, DATAPACKING=BLOCK,
VARLOCATION=([6]=CELLCENTERED), ZONETYPE=FETRIANGLE
-1.00000000000000000000
-0.95983380908403215237
-1.00000000000000000000
-0.91966761816806430474
-0.95983380908403215237
-1.00000000000000000000
-0.93851661844766276488
-0.87703323689532541874
-0.89835042753169491725
-0.91063302902899678770
-0.90159843988992938169
-0.95079921994496463533
-0.87040124368767546326
-0.84908405305130596474
-0.82113486920728662177
-0.86136665454860805724
-0.95079921994496463533
-1.00000000000000000000
-1.00000000000000000000
-0.81674942421841834062
-0.75646561154151137352
-0.78880024037439899764
-0.83864930944260240864
-0.79841752410128097317
-0.77570017899527543559
-0.89843882664872598554
-0.89527921340752258939
-0.94763960670376135020
-0.83548969620139901249
-0.72859011714901467105
-0.70071462275651796858
-0.76092474598190229518
-0.73820740087589675760
-0.94763960670376135020
-1.00000000000000000000
-1.00000000000000000000
-0.69828604715674202907
-0.64010648277197268463
-0.67041055276424532661
-0.79600618051658356134
-0.84564269696205307536
-0.78585317975592949846
-0.70635860560988072976
-0.66886582749050205177
-0.63701703222448613495
-0.89896256862545464994
-0.94948128431272738048
-0.89712089101648861966
-0.84748437457101910564
-0.74073438780081712896
-0.73058138704016306608
-0.68546259508505069658
-0.66123981365476836025
-0.64180187344232419999
-0.61149780345005155802
-0.58288912412813043140
-0.60995307817630828318
-1.00000000000000000000
-1.00000000000000000000
-0.94948128431272738048
-0.80100425888338133706
-0.84998341375441799350
-0.79850521969998244920
-0.55690376573973521257
-0.58551244506165633918
-0.53091840735133999374
-0.75778067566372320218
-0.70250888294795676980
-0.71955517081086284303
-0.60011480417374563068
-0.56321257612300523743
-0.62433758560402796700
-0.76027971484712209005
-0.55345540149745420244
-0.52402167886677786246
-0.58051935554563205422
-0.95018370885531777681
-0.89966499316804515729
-0.90036741771063555362
-0.85068583829700838983
-0.54361712749489154994
-0.50433339881495631296
-0.47774839027857268769
-0.53031875720335153179
-0.65536812742171923762
-0.62527365975838777867
-0.67241441528462531085
-0.59424311794069650805
-0.50088503457267530283
-0.70414679062585228131
-0.68873841044084171958
-0.74487133466211152832
-0.95018370885531777681
-1.00000000000000000000
-1.00000000000000000000
-0.84999900009089413011
-0.80031742067726707734
-0.79963058247115281763
-0.65700603509961474913
-0.48095458793476875137
-0.43099076851819750900
-0.45436957939838507059
-0.74418449645599726860
-0.49564670631068619144
-0.46727173375459446492
-0.51524215493879987893
-0.45262239605533799436
-0.42749640183210330102
-0.47575904034944060950
-0.57541579964610312103
-0.54438525782841185041
-0.52555793953381857442
-0.95032671945716140627
-0.90051042831247918308
-0.90065343891432270151
-0.44738406779334888297
-0.85014201069273775957
-0.62879909846374126836
-0.59706672312251418688
-0.56885978648664070612
-0.52477779792314349638
-0.47680737673893813788
-0.48634301972328181085
-0.50595047962855022039
-0.43094473048582981889
-0.40756591960564220178
-0.38414107069308689457
-0.40581873626259512555
-0.70228291601414316592
-0.75095674924264799177
-0.69551066322749244275
-0.54720886301022964027
-1.00000000000000000000
-1.00000000000000000000
-0.95032671945716140627
-0.60160886654233169946
-0.64517363849158670952
-0.58523432651448614727
-0.80164743661267234831
-0.85115043776349752491
-0.80063900954191258297
-0.40375476508957097721
-0.38001312834703870891
-0.42364243105081655916
-0.65194589127823743269
-0.75196517631340775711
-0.36213888464867660666
-0.38556373356123185836
-0.34013669860426626324
-0.45890284118973606597
-0.44936719820539239301
-0.43146266265619032110
-0.51650303505042272079
-0.49485211157401165494
-0.46414628361420467995
-0.36276477241908222648
-0.34138847414507750289
-0.38444243798859040195
-0.46562464350208232489
-0.44490626728088278341
-0.48523210340735067891
-0.40573789550161454276
-0.36070080124605807814
-0.95012351844332587625
-0.90045023790048728252
-0.90024703688665175250
-0.85094723674966199489
-0.55430976564349920821
-0.53793522561565376705
-0.50701066474466682799
-0.45452627544754375943
-0.43818446496853658001
-0.60684629291721359223
-0.61208371929209559603
-0.65718331765311943649
-0.48557847417943578172
-0.70407358253114915581
-0.75286050957191075206
-0.70317824927264616086
-0.31980634111997829905
-0.29947598363569039037
-0.34180852716438864247
-0.32043222889038391887
-0.65807865091162232041
-0.40560520351291867724
-0.37988043635834289891
-0.37974774436964703339
-0.95012351844332587625
-1.00000000000000000000
-1.00000000000000000000
-0.33987093250136291012
-0.32055860540038233486
-0.29972873665568716683
-0.41232700582526493616
-0.52308257884272069127
-0.56234572269252613985
-0.51504662179369375963
-0.80030561503717390082
-0.79896379346167534230
-0.84960541517416354740
-0.56758314906740814365
-0.75151868799641219354
-0.42450800659770648871
-0.41488799843104556819
-0.38486972958120835298
-0.43432449627172570183
-0.47066758050819623715
-0.44923538994296519089
-0.29847620746655267876
-0.25681571632883914980
-0.27814584998226477008
-0.34820974125071391114
-0.34834243323940972115
-0.31667173813178073338
-0.30820023739373392235
-0.38230873697542766543
-0.28186971924674841805
-0.26426345485780650124
-0.30282596450144200206
-0.28199609575674683404
-0.61008000575982057612
-0.60807629222754544518
-0.65607493737934730049
-0.89779630440053059814
-0.94889815220026529907
-0.89902167064359117532
-0.42276778808348147720
-0.38312951106698334147
-0.38138929255275832997
-0.84838004893110297022
-0.40785689441224204366
-0.48221204878096146640
-0.47417609173193453476
-0.44134151871920224153
-0.56762804208670991635
-0.52312747186202246397
-0.52317236488132412564
-0.43783300749546394393
-0.69453404564274945354
-0.74674891955221234241
-0.69930381408694930467
-0.56562432855443478541
-0.32067563825304001845
-0.35277268391712418572
-0.35021169131134355368
-0.26016069396992858032
-0.23883056031650296003
-0.22084540430416677026
-0.65130516893514744936
-0.31867368819241037592
-0.24255442958098663575
-0.27747432630023532996
-0.25521991594478349308
-0.28594582703828208547
-0.24142573561493310685
-0.27057723613531015072
-0.25284459523636981793
-1.00000000000000000000
-1.00000000000000000000
-0.94889815220026529907
-0.79039015575680948711
-0.84409323007867009814
-0.79467697460924235919
-0.44025918457141732798
-0.43917685042363246994
-0.48112971463317655285
-0.48117460765247832555
-0.24832282577985831384
-0.34972622935739794414
-0.35146644787162295565
-0.31806316616203761383
-0.74246210069977947033
-0.40228101710969144111
-0.37581341525020772742
-0.37023753794765718039
-0.40578952833342973872
-0.31936940220753884390
-0.19990159738718094040
-0.21788675339951713017
-0.17895779047019508279
-0.51796865856150153817
-0.51276495224167895071
-0.56042062223461219794
-0.28939447345510699305
-0.26211720877843325272
-0.29139642351573663559
-0.64313788700487628525
-0.59990901029727417004
-0.59174172836700300593
-0.25866856236160840066
-0.20509146483990536858
-0.18933752537564396690
-0.22680049011672523407
-0.21538163049528852300
-0.94707874794389812489
-0.89597690014416342397
-0.89415749588779624979
-0.84227382582230281294
-0.55225334030434103383
-0.30692556872606546747
-0.34415743063941189872
-0.31249436744405156841
-0.40029652776500657119
-0.35925153681081084533
-0.39921419361722165764
-0.33858155333686135169
-0.36474453737923401286
-0.47637014426631557606
-0.43437238703746972046
-0.42956792365130702649
-0.66774520044971108490
-0.72906767810326034152
-0.68113962304623032473
-0.22077998068469151249
-0.20013422575444989038
-0.22767707084961669173
-0.47116643794649298860
-0.29001501498287751701
-0.25935439171271496006
-0.28870877893737628694
-0.62974346440835704541
-0.16224678964120758939
-0.14553578881222012376
-0.18319059655819344701
-0.26073580024557407864
-0.16743665709393204533
-0.19473587556504692864
-0.23158526753620028993
-0.20795061912761705902
-0.23503391395302514200
-0.94707874794389812489
-1.00000000000000000000
-1.00000000000000000000
-0.78684336338292060198
-0.78329657100903160583
-0.83872703344841392781
-0.20404242244103348858
-0.39275116982609759031
-0.35278851301968683352
-0.34632548922856276619
-0.72552088572937134536
-0.38794670643993489634
-0.28295428391212501529
-0.24784540166221244450
-0.27738548519413896987
-0.54428683588507231761
-0.50479844782241034551
-0.49683194340314168480
-0.29815266783989768928
-0.28937976695372996661
-0.32980865245069357350
-0.32431565188227040597
-0.25359989668746368841
-0.42384123557148589700
-0.41811454749166482303
-0.46543974986667191462
-0.14182342577198700506
-0.10468906107377891346
-0.12511242494299951167
-0.57738839235574412889
-0.56303505634448536288
-0.61539012839709816838
-0.20570229709273368801
-0.23252834440272432404
-0.23390975293558347037
-0.20682645811017535964
-0.16653152475693372425
-0.14372552413822345385
-0.17192987494633665824
-0.45747324544740325392
-0.12994276174359745135
-0.11434973467497477895
-0.15184363002530937292
-0.52993349987381355159
-0.89091636252477734992
-0.94545818126238867496
-0.89253692920628679985
-0.83710646676690447787
-0.23060694157722594344
-0.26876625515164570546
-0.23922617161971920785
-0.30957458846875451908
-0.31603761225987853090
-0.27282368770894621646
-0.25999335426547798278
-0.17858672271822140232
-0.15703921968199288650
-0.18249491940480497276
-0.12903762940659913028
-0.28110172733133809153
-0.33839789783219575980
-0.38398291074175139315
-0.34236169353037926300
-0.67088661326512455396
-0.67402802608053802302
-0.72866229854478481442
-0.37825622266193026366
-0.22679745598984174526
-0.19424052026696855822
-0.22104296096459050136
-0.15038237191010817018
-0.56674883660854180611
-0.57046261687259813833
-0.61910390866115461161
-0.19997140867985113699
-0.10923745315235680597
-0.08881408928313619389
-0.07293911749249347432
-0.09364442608373413357
-0.18199074277620555518
-0.15603086642479405133
-0.18086658175876385579
-0.62224532147656808068
-0.40977487630001141472
-0.45330340985157657752
-0.41394471189583814663
-0.94545818126238867496
-1.00000000000000000000
-1.00000000000000000000
-0.15653504305339346891
-0.52349257400537674290
-0.49039101753470487610
-0.48395009166626806740
-0.77882485253671662750
-0.83487060753074704422
-0.78106071177287406115
-0.27142172829298832903
-0.30887360876077551985
-0.27212270800096727275
-0.21394851638637604752
-0.18005163111053965053
-0.20532928634388281086
-0.72642643930862726975
-0.30490981306259201666
-0.25322961390055309661
-0.22384320121230111278
-0.21707946084737625436
-0.24495157427816122153
-0.18714607568875410437
-0.11527850426079855328
-0.10059060952917422971
-0.08683148438337366659
-0.44686248398313976882
-0.52720635426943307511
-0.37748440940472971494
-0.33762608457499521109
-0.33685427131779466237
-0.13186096019567647430
-0.12520411242379175798
-0.10668270070936007599
-0.37331457380890303854
-0.05270078124471139214
-0.06857575303535411171
-0.03246244499692930996
-0.14494982178852841570
-0.16959517102774848696
-0.17532605944063106573
-0.15049034410666123351
-0.06218830214497134135
-0.05143748679744921531
-0.08289361073621200060
-0.94377945978586907927
-0.88923764104825775423
-0.88755891957173815854
-0.09675709254636687129
-0.83319188605422733751
-0.13395848654052855409
-0.13446266316912797167
-0.11188610665626305685
-0.57035162285871132681
-0.57024062884482440428
-0.62213432746268115814
-0.06913448559041143748
-0.20186603737916208878
-0.17658838214581892845
-0.17312513318109820637
-0.19510229701423723037
-0.24670578351446820209
-0.24740676322244714580
-0.22198983873594807514
-0.21953464979166215088
-0.66977416238802733872
-0.72429950746237192760
-0.67190109423428268087
-0.10928440368281155948
-0.31062061736640733667
-0.27713253259680364904
-0.28284333690061896904
-0.46037016407790631867
-0.51541639047525222850
-0.47216012787208716528
-0.30984880410920678795
-0.13524470910712915739
-0.15764817010883441784
-0.16474261468704887168
-0.44585206373227426191
-0.40876445604914596332
-0.40775403579828051193
-0.62000739561642581599
-0.14009726544782880042
-0.01419038315992528221
0.00408167867707874728
-0.03442871940770736439
-0.34187853109550742081
-0.37582670369775939001
-0.33936640120665106934
-0.51530539646136541698
-0.02367790406018523489
-0.12559726166801629677
-0.09516365691123852832
-0.12005673934988347895
-0.10352488178375079952
-0.94377945978586907927
-1.00000000000000000000
-1.00000000000000000000
-0.76465926341455359161
-0.82610909149314593058
-0.77174205797563510956
-0.07131363246008814993
-0.05579578053680262634
-0.08123924062308135463
-0.43406209993809341530
-0.37481628344689399412
-0.71721671290129052068
-0.04083472750620962405
-0.06383310594479164879
-0.04613610715182941968
-0.15828751744825497738
-0.13652340378597027648
-0.15482426848353425530
-0.25199526299938479479
-0.26170849564618658967
-0.23699255086766643497
-0.18004854110911611142
-0.18697194903713404424
-0.20202570494225513542
-0.26741929995000190967
-0.20448089388654105969
-0.13588405644654971693
-0.08652779856634865152
-0.06637289642333724093
-0.08912950153980014889
-0.28965936338404046912
-0.29647538986746196921
-0.31666483059262828803
-0.04831525402150612519
-0.31917696048148469501
-0.11496205370008209801
-0.11981461004078172716
-0.09467939829303503863
0.00365021101263046654
0.03976286702219024305
0.02192227284963449430
-0.57224983683621422070
-0.62101199961212083522
-0.57124523284051931249
-0.06108433848006993017
-0.09492152760213679041
0.00229800437222422473
0.00051433006736970228
-0.02546157836503975744
-0.52236163756063314079
-0.46742640517717404247
-0.47448264627644182179
-0.94479890277331923798
-0.88857836255918831725
-0.88959780554663847596
-0.02016019871941996180
-0.82712853448059608930
-0.09041110178391006946
-0.06893609691155706820
-0.08204987691139779826
-0.38432069268676638529
-0.36088734957525231417
-0.41062875682657928866
-0.06765449666744716151
-0.35138294033537986749
-0.65446742592425599661
-0.70956334466940473860
-0.66212079415614166766
-0.16370904611501843617
-0.14540818141745448511
-0.15429295904893866598
-0.52336624155632804900
-0.17063245404303634123
-0.24405423003739287746
-0.22905151790567451764
-0.23611319707540096013
-0.19853170233381012277
-0.21009145563048622907
-0.21604064718321713823
-0.26253746312793024842
-0.27307966325647570205
-0.27796150007854736330
-0.61335863138023505314
-0.10387588023190214015
-0.12019964200893620832
-0.11956029466951564877
-0.28477752656196886338
-0.09927763926246858939
-0.02393985256648591825
-0.00704497762676220898
-0.03142037908178241939
-0.22310232635294358072
-0.31110599396469279521
-0.32649226253010010801
-0.30379069191607738221
0.06040524256912602891
0.08104761811606181476
0.04256464839657028015
-0.38317356206385316808
-0.42882810417014749493
-0.42177186307087977113
-0.05745705536980582478
-0.07606822683142043517
-0.07631035614052217309
-0.37203045581955274113
0.03099181391727750742
0.05790194915747626930
0.02920813961242298487
-0.03332790421332822162
-0.01086002788985380996
-0.03861646215659552545
-0.00326532377969625340
-0.33599667176997255469
-1.00000000000000000000
-1.00000000000000000000
-0.94479890277331923798
-0.05660346588602005458
-0.04427083486048304095
-0.06971724588586078464
-0.78788638277805900234
-0.83874209416234868364
-0.77627282309630629697
0.06947478363676903856
-0.68153397963526007874
-0.72309662152490683518
-0.66800070277975809319
-0.00895250275830800947
-0.13139533301778780205
-0.12626726224960532763
-0.14028011064927198293
-0.02824181896179937465
-0.04858895793667822316
-0.04730735769256830953
-0.05086394511514442940
-0.25767924878139580880
-0.24973821581940386372
-0.26336323456340676730
-0.11507157124075373389
-0.18708905785528673338
-0.17074956286118905813
-0.18720616667343945028
-0.48438623229530280989
-0.52831803456575854305
-0.47943443928587231584
-0.26822144890994126243
-0.19864881115196283967
-0.73471018120665954054
-0.61821058505316639486
-0.57710179050914556242
-0.58195374418207679312
-0.27945402982415423754
-0.28582839639183282854
-0.29115189312964739887
-0.01955092342582659404
-0.08405890537179455668
-0.07343841245055406086
-0.08865714634122809357
-0.29846719517826281187
0.09596568846065431369
0.07532331291371852089
0.11088375880524679873
-0.06544773391017993935
0.02235520577945705745
0.04419608149154441445
0.01857555193239110447
-0.03625632691114120953
0.05104901532451033841
-0.43320353362293984034
-0.38754899151664545798
-0.39192442096943780339
-0.21771572286341242530
-0.22533999009633862154
-0.23072659358586977696
-0.34472477913474575129
-0.31983410132946599180
-0.32856220869423924391
-0.35586788537904623375
-0.53316998823868977375
-0.63174386190866838042
-0.94778393416397332949
-0.89258283693729256747
-0.89556786832794665898
-0.84172712555300277515
-0.43815532663237033439
-0.27459581547761979792
-0.14633330055491841626
-0.15031312980192854112
-0.13630028140226185807
0.01572227638051995613
0.03848953038780212471
0.01381475124897415738
-0.20627307838488903591
-0.16676973361417893327
0.10036337564138382572
0.11967913316670583668
0.08879054116209104952
-0.24557474782652163880
-0.25503629857764231748
-0.25919976657052457014
-0.10358029319588990536
-0.10328470615987768444
-0.11477598420474149910
-0.02433235266103429828
-0.04089470401542005806
-0.03430159376075866962
-0.08836155930521587265
0.04134280593967326611
-0.24018814433699048339
-0.30594235506666744850
-0.29330355628023740966
-0.30077871616864204629
0.00344429480186916187
0.01774861749359213370
-0.00524660073410362048
-0.69798808308324078453
-0.74293723293064983793
-0.68976103135925037613
-0.01623567457711810186
-0.00422953019243682733
-0.02425018252645993327
0.12954534772852585589
0.14820693665180489917
0.11462727738393335697
-0.04702854511380572672
-0.06023347878217989726
-0.05224280024180577575
-0.31096628494865474757
-0.31082657593261669993
-0.31969439231342799967
-0.33120320021559784829
-0.36156381059251785359
-0.35718838113972550818
0.13394303490925535405
-0.32988270445491851834
0.07929244758525844095
0.10068294601304061953
0.07243951375229251699
-0.12480900335739805729
-0.59986631952691849001
-0.64070014958108933989
-0.59091003185449764157
-0.30580264605062934535
-0.03568044888742001597
-0.27139183304503622374
-0.27942043152666568018
-0.28262441395924925436
0.11018103958987322810
-0.01428094142673556194
-0.94778393416397332949
-1.00000000000000000000
-1.00000000000000000000
-0.49179675775171638463
-0.49920728320812990386
-0.54058051369510340400
0.04270246112975592534
0.04691539187170973291
0.01802768199092796148
-0.84614140118835590165
-0.79230065841341212884
-0.79671493404876525535
0.00675954365057765318
-0.20097126950700366921
-0.21473637234056786038
-0.22003818121845325484
-0.26722836505215397107
0.03233200468265093330
-0.64892720130507963727
-0.44228812795001154479
-0.39605722228707906929
-0.40019002360472027968
-0.16178715732342779932
-0.17724101409193721013
-0.18222359038268831632
-0.74735150856600296443
-0.29009957384765383548
0.06412672465707676406
0.06698000020894791240
0.08976391892635141034
-0.06884006822123667213
-0.06424172399191928340
-0.08376321507589848392
-0.54953680136752414143
-0.25104023910168382638
-0.23619208486103199229
-0.24704417962572536305
-0.05563513455286250853
-0.44969865340642511953
-0.13555210903915718146
-0.14094270479703779886
-0.11941840759951743989
0.14580252297251369842
0.18072128713978061199
0.16446411189579274170
-0.19598869321625253526
0.09522343246969601493
-0.32716319517046982268
-0.35954380806995378528
-0.32918319769303383548
-0.31106625675187699054
-0.31981423272305808947
-0.31094641634224684523
-0.32113472848373741941
0.14978328519617595260
0.16404718693872546997
0.17988743722564604077
-0.23089027598314659784
0.00163540120419156066
0.00750033260081994866
-0.00841601003010717524
-0.36367660938759505118
-0.94895766866948960683
-0.89674160283346293632
-0.89791533733897932468
-0.15639656156554720967
-0.02339509269320963133
-0.03521181890350767729
-0.02386372267712196654
0.02522574913066581020
0.03270288076773948671
0.01423667528765133056
-0.84731513569387229001
0.12566368102137104312
0.13516177459820366558
0.15064441602970149447
-0.30360359736291331334
-0.30642847855718458039
-0.30862752724490061240
-0.26365298650568413930
-0.27226967443372590560
-0.27584505298019579289
0.06255430450374954710
0.08661907861969696254
0.06676723524570335466
-0.29141496594897070560
-0.29609684105880640370
-0.28541769873781819289
-0.60758065819041973121
-0.61529499685392086139
-0.65664153996858076745
0.08819149877302417950
-0.25965692702972564820
0.06154475326212377473
0.03964668537785795421
0.05423007256691675382
0.16526592662767375375
-0.04381840834256445910
-0.00794738004619484177
-0.74988407945497415064
-0.70052065397221197074
-0.70305322486118315695
-0.09274628484277884499
-0.09801549550132826472
-0.07849400441734906420
-0.11414919694096800629
0.02010160668427971725
-0.55942071380903224398
-0.50909119564963800642
-0.51897510809114599795
-0.30874736765453081322
0.18105310877998814778
0.19731028402397601806
0.21389928090817142414
0.04712381701493163072
0.15274982657348201709
0.12125687274991671372
0.12671638629326131831
0.19689335906690874634
-0.41588864109872181185
-0.45754796215342585786
-0.40803933235172107352
-0.31496212478498492038
-0.31698212730754893318
-0.30276105439950001808
-0.30691365557568850431
-0.65917411085755195366
-0.30110747407910987139
-0.30143623198957764098
-0.30393235527338113844
-0.28184232019134830560
-0.20781730600000000719
-0.21127683917028394767
-0.19252916004596859478
-0.29642559896927417329
0.15169712130159174190
-0.22728460067028394276
-0.23983282899999999738
-0.24343850431286268021
-0.56713505247253337416
-1.00000000000000000000
-1.00000000000000000000
-0.94895766866948960683
-0.15298576651957859762
-0.17041942400000001379
-0.17383021904596862584
-0.32698324998495975624
-0.36358663679484004572
-0.32707322257771476171
-0.79619660612706388836
-0.84705597173302160652
-0.79645577008791457185
-0.46743187459493390490
0.09019201754383629477
0.09376495646797561312
0.07034017416984267301
-0.05035149222094202626
-0.05729660810643065483
-0.03687329245707583053
0.07765485486504969392
-0.74962491549412346714
0.10990983575195492628
0.11148225590528215712
0.13320059288421290389
-0.22382506750000000229
-0.26563680800000000204
-0.26895324121686292607
-0.25634049381286266867
-0.37143594554184078405
-0.07154888853186043562
0.01309803170824049012
0.01869573081566103245
-0.00234968093877429944
-0.18911836500000001049
-0.30233055071326980778
-0.29823262286935503518
-0.30464943981061598510
0.03786856572896336176
0.02268444916489165478
0.03528572324835142771
0.14297520972884747437
0.17638552828128967187
0.19100703887926195890
0.20212664053287784927
-0.12860776800000001119
-0.13207993851957861020
-0.11067702642138943503
-0.25273481850000001359
0.23189732053849648752
0.21530832365430108144
0.24989536016882157865
-0.30049683863442755438
0.22843855026660461749
0.24297781962503781084
0.21143262842534193968
0.04994333680127161640
0.06436427304846376041
0.06718379283480374609
-0.14951359600000002636
-0.27841530371686296075
-0.28456093300000001589
-0.28798794947448536075
0.17743823355317994706
-0.29521058262176658182
-0.28766011084403314557
-0.30741165300725148413
-0.30732168041449647866
-0.62388293633468960842
-0.66346808059793638268
-0.61958896659430529041
0.02828214827231219711
-0.94911732817289262698
-0.89807499684238234483
-0.89823465634578536498
-0.57818786470842187253
-0.53002792032703438529
-0.54108073256292288367
-0.84721563123642462667
-0.30364984966000041489
-0.30115372637619697294
-0.30087122076281630489
0.22255223007895783005
-0.29877565549478879436
-0.29376502247448532668
-0.29611507900000000326
0.05252617928188355045
-0.27509887050000003672
-0.00710917150187485424
-0.02873033186140843895
-0.01525213209754224322
-0.43851382429172097721
-0.47874446619143351533
-0.42720123269522136678
0.00579327965689308867
-0.29955192181608569779
0.12999459456007303459
0.11187977551402432386
0.10830683658988499163
0.13159759372214296924
0.08098584012947064592
0.09709594173239656512
0.10042692699681751711
-0.74025747853665779807
-0.69368578790371737686
-0.68431835094625159677
-0.06690836571047101278
-0.08346523919999999930
-0.08810576202138942215
-0.29033800600000003733
-0.33634119366105613702
-0.37611491737988900219
-0.33166222182300797439
-0.58248183444880630155
0.08380535991581063160
0.18661304120869995349
0.15990681704645642869
0.16968143389109097141
-0.10603650359999999830
-0.65410064364047060259
-0.29006770435595041757
-0.28190278584254574445
-0.29233192012102288126
-0.48979727842732190268
0.18629661257587643020
0.21098501955557433241
0.21984339857827081555
0.26556751718226934145
0.28123967419571710424
0.24756947755194425032
0.26210874691037744366
-0.28478144834328944501
-0.38742750897638855712
-0.30071811599478881494
-0.29999999999999998890
-0.30043561038140814690
-0.29805753950000002384
0.06487084360309355868
0.04178328720937729557
0.05136970466602845675
-0.94911732817289262698
-1.00000000000000000000
-1.00000000000000000000
-0.30051783292324152352
-0.28085626335277824595
-0.27405241586152334632
0.20322821989348538452
-0.84708426203799758181
-0.79606523692863684349
-0.79593386773020979863
0.06602731821894865238
0.23275576230631600527
0.25318135185239598606
0.26338488407975413352
-0.03616100409999999793
-0.04325624816047100862
-0.02163508780093742478
-0.30519680476128974167
-0.74012610933823075321
0.13202932848197923565
0.13406406240388540896
0.11391450943593051104
0.11724549470035146304
-0.29584547638597813446
-0.29081973200914001954
-0.29452617743924752736
-0.05981312164999999514
0.02812868060868756875
0.03756163040171410505
0.01522622944991962497
0.16576147642880301181
0.14787803549443800932
0.14948103465650797173
0.17618725881875146877
0.24161414132901248841
-0.55600026231234356278
-0.57091979206176424189
-0.59740136419822698066
0.05121623700240383187
-0.28861957026713758179
-0.27900651766492012840
-0.28045465175373296418
0.08560619755227626138
0.10222776463328314689
0.10402860226974877667
-0.62761907150400797484
-0.46950739722673562326
-0.50529406489482919795
-0.45401061075922832799
0.28376085801142003628
0.31762635585401849392
0.29943301502486779908
-0.28491312483703007397
0.27846051490853235277
0.29759144219387201336
0.31394321019202686696
0.08444972293642116767
-0.26302031703884731773
-0.27534021394144025940
-0.27246155144069650333
0.28866404713589050024
-0.26853636645018530427
-0.35129787008346385901
-0.39490584718759241811
-0.34381953187225999802
-0.29805753950000002384
-0.29611507900000000326
-0.29849314988140818183
-0.94923854977696564550
-0.89835587794985838350
-0.89847709955393129100
-0.84720548364207060033
-0.52021359464424987706
-0.29346740550457001140
0.24107068775926049353
0.21384186448398023739
0.23045704316876564066
0.01207978200000000071
-0.01204061104999999861
0.00248530524906257324
0.02482070620085705115
-0.74712874551905428255
-0.69132098712707512611
-0.69832362330789865545
-0.41040263365509976889
0.14968405202139975496
0.16937350948272647533
0.15171878594330595602
-0.27113251710736646638
-0.26821261835320958644
-0.30227690600713286173
0.13566137732018998530
0.13725869223649456163
0.11884280961665603937
0.16756749295576472969
0.27715031826968378192
0.24849685842397728486
0.27026760117471892997
0.12064364725312166915
-0.59745804267141133792
-0.64088819680883146734
-0.58418891736658773439
0.19847419139078023576
0.21033534157286051802
0.18804840900083175104
-0.30975524421833672273
-0.27353890433655236869
-0.27209077024773953291
-0.26517502283055899293
0.08286005041693876583
0.06021084040932643544
0.07386544701001615532
-0.64789083298965499669
-0.26409766993470318308
0.33265045948002686105
0.34767456310603522818
0.31445711865087616621
0.22570301466606051966
0.25911050301447213773
0.33080888664903107532
0.11154902004160520412
0.08820993182234937446
0.10778881115567698346
-0.27585269209275153912
-0.28175929926486148469
-0.27269886652058294985
-0.25798187961346086272
-0.25246583020212287618
-0.24191134336539837912
0.29109692962397781812
0.31637609268011412933
0.31880897516820144721
-1.00000000000000000000
-1.00000000000000000000
-0.94923854977696564550
-0.84832609602811936966
-0.79705448011625867899
-0.79817509250230755935
-0.25506198085930398278
0.18985442552779349668
-0.49935593703925190701
-0.53513786455050804669
-0.48443166713299379289
0.09720453522927198498
-0.74824935790510305189
-0.29033800600000003733
-0.28456093300000001589
-0.28769033250456998996
0.29797964671894261457
0.06000770810000000122
0.03604374504999999923
0.04878466925085705314
0.15220654435399227911
0.16986126789341282617
0.17034902630409914925
0.15380385927029685544
-0.43506719587018938267
-0.37596243229855352830
-0.40062699451364319758
-0.54840698985533165022
0.07143387925846939046
-0.27862989976029151062
0.13982738952301826396
0.14239608680954196629
0.12321234453964537148
-0.26136528143044451822
-0.26828102884762505820
-0.25755554003033004351
-0.30852783900665103900
-0.26698521314152390271
-0.26575780792983827450
0.12697255342557359215
-0.26512720327545646892
0.36487427046641718320
0.34985016684040881607
0.38207397782679908271
-0.25521328738693133120
-0.24525155194330366948
-0.25413593449107552136
-0.44999146577644755229
0.37909462540581301271
0.34651891779891996759
0.36338459425592412044
0.29360531862597005759
0.26733800319261524781
0.28537781844782694751
-0.24358144765435102430
0.25182436420770704100
0.26257804065615358846
0.23645669111450706712
-0.60357831720047316892
-0.60969859172953511095
-0.65401110751871693871
0.33818426037864557365
0.33575137789055831128
0.35755954558908970009
0.20666196814208814825
0.18801773881240729791
0.20849865485747431926
-0.94885796575439274037
-0.89809651553135827484
-0.89771593150878536971
-0.84794551200554646453
-0.23308176886898690494
-0.22425219437257545851
-0.24623240636289250860
-0.35063977778362132032
-0.32597521556853170654
-0.30065256105359949856
0.36832708549745135640
-0.75050832550202928317
-0.70058259090482488674
-0.70284155850175111802