VARIABLES = "X", "Y", "P", "U", "V", "divergence", "vorticity"
ZONE NODES=7045, ELEMENTS=13692, DATAPACKING=BLOCK,
VARLOCATION=([6]=CELLCENTERED), ZONETYPE=FETRIANGLE
-1.00000000000000000000
-0.95858933377468513726
-1.00000000000000000000
-0.91717866754937038554
-0.95858933377468513726
-1.00000000000000000000
-0.93659932113189170444
-0.87319864226378340888
-0.89518865490657684170
-0.90802188001607231360
-0.89886509248277424167
-0.94943254624138706532
-0.86662896213074080976
-0.84463894948794726592
-0.81607925671211112295
-0.85747217459744273782
-0.94943254624138706532
-1.00000000000000000000
-1.00000000000000000000
-0.81135409819523107711
-0.74950955412667874533
-0.78279440541939493414
-0.83476121785267498598
-0.79336829996734348214
-0.77065734322257573030
-0.89582302368040001017
-0.89278095487802577868
-0.94639047743901283383
-0.83171914905030075449
-0.72118852250893827893
-0.69286749089119781253
-0.75447337380165446774
-0.73176241705688682693
-0.94639047743901283383
-1.00000000000000000000
-1.00000000000000000000
-0.68964764394397759517
-0.62978573376127644501
-0.66132661232623712877
-0.79198888288815449954
-0.84238491888309008360
-0.78132311305536505941
-0.69991107493009341312
-0.66101614876440450974
-0.62916480663761120695
-0.89665991885600548894
-0.94832995942800279998
-0.89472043686701563381
-0.84432440087208004975
-0.73601516846159364960
-0.72534939862880420947
-0.68004145403503268863
-0.65460313033632200330
-0.63203892295620789366
-0.60049804439124720989
-0.57121035502121797478
-0.60018758082941459087
-1.00000000000000000000
-1.00000000000000000000
-0.94832995942800279998
-0.79706804498802308334
-0.84686398192201428614
-0.79452846393808873593
-0.54353428338979037360
-0.57282197275981960871
-0.51585821175836277241
-0.75341217405496296866
-0.69743845962840200770
-0.71483546522177143778
-0.59234933050456128889
-0.55553385437151148185
-0.61778765420327208524
-0.75595175510489731607
-0.54147363296299777513
-0.51173691090477757548
-0.57045085877119439122
-0.94904784324452406974
-0.89737780267252675870
-0.89809568648904813948
-0.84758186573853566692
-0.53363538263814458418
-0.48798068328209354139
-0.46010315480582436587
-0.51565675491352114257
-0.64985685997744968567
-0.61967226591986657169
-0.66725386557081900474
-0.58760306014568897126
-0.48592003285530094292
-0.69920278155719284285
-0.68357009789261413690
-0.74031907144031861012
-0.94904784324452406974
-1.00000000000000000000
-1.00000000000000000000
-0.84685046341657033153
-0.79633664266605785897
-0.79560524034409252359
-0.65162118190624029879
-0.46239295845434724708
-0.40892770515033177725
-0.43451542997807807156
-0.73958766911835338576
-0.48277351149277314413
-0.45381011208076871277
-0.50467198322614015282
-0.43380310965127621969
-0.40750306449672812903
-0.45961998770075285226
-0.56889358614267315772
-0.53682438036849555729
-0.51811490636547974376
-0.94923296464702633379
-0.89828080789155051455
-0.89846592929405277861
-0.43065658828874842090
-0.84703558481907270661
-0.62296736604761226985
-0.59101845006123843174
-0.56236463420261029178
-0.51585054970871635494
-0.46498867856334491488
-0.47616724504592117251
-0.49714107570570043038
-0.40904808592528835165
-0.38346036109754205734
-0.35799301704475233743
-0.38274804077074020547
-0.69695120167052893034
-0.74627822100731067145
-0.69026064978157153362
-0.54023977028404501777
-1.00000000000000000000
-1.00000000000000000000
-0.94923296464702633379
-0.59504867177516096444
-0.63930938483388755067
-0.57870665298888557260
-0.79777152959435693180
-0.84811872944420485521
-0.79668838496922478321
-0.38258670216100798545
-0.35767033982528778635
-0.40574022595302827732
-0.64599993672284494739
-0.74736136563244293107
-0.33339699166530634145
-0.35886433571809606136
-0.30880096628586034546
-0.44650735919768991256
-0.43532879271511365493
-0.41684747334945859709
-0.50858066523575562456
-0.48645580131719035055
-0.45479669626890090184
-0.33454823144255185774
-0.31110344584035132254
-0.35930325516853972578
-0.45486642139214350511
-0.43356559773836578220
-0.47584025205192276298
-0.38725890658737316397
-0.33438689283281952669
-0.94912592874227419415
-0.89835889338930052794
-0.89825185748454838830
-0.84801169353945260454
-0.54678907467857040814
-0.53044705589229501630
-0.49852947758197974082
-0.44418114700363331426
-0.42520653554391218965
-0.60027013107636317812
-0.60549159037756550283
-0.65122139602404716108
-0.47666308692544034908
-0.69894997724309293474
-0.74836075341872487776
-0.69795058945681098805
-0.28593092484385412844
-0.26306088340184791141
-0.31052695022330012442
-0.28708216462109958922
-0.65222078381032921879
-0.38913142938733447096
-0.35954286262524903783
-0.36141538542521034483
-0.94912592874227419415
-1.00000000000000000000
-1.00000000000000000000
-0.31130363633206131757
-0.28802018933959305791
-0.26493693283883484879
-0.39749049158178806351
-0.51459714553986446450
-0.55482290865751271447
-0.50656331156092204715
-0.79660672742643579003
-0.79544192525851464826
-0.84684689137153146277
-0.56004436795871503918
-0.74719595125080373599
-0.41232547305798561421
-0.40170992379271808215
-0.36985424984707038210
-0.42284466549995408657
-0.46068707154096688594
-0.43882068088442749421
-0.26188249046633677031
-0.21496401464681322291
-0.23901244902433055328
-0.32482341576712481235
-0.32295089296716350535
-0.28823144610903927987
-0.27658418947393703657
-0.36563481763614036346
-0.24283635120438795685
-0.22261181900692797453
-0.26685763242363963466
-0.24377437592288142554
-0.60366454233602317991
-0.60183749429448074597
-0.65039373576878678485
-0.89605621328366835687
-0.94802810664183412293
-0.89715403538410831707
-0.41073885401956800045
-0.36826763080865276834
-0.36668101177023515458
-0.84574906927109150256
-0.39476283863509464833
-0.47221598360160510488
-0.46418214962266274304
-0.42983482166334574526
-0.56022254310657348952
-0.51477532068772302587
-0.51495349583558147621
-0.42633974358164994367
-0.68989243006831513227
-0.74266717766341483475
-0.69442120365570403351
-0.55839549506503116660
-0.29708444013851131871
-0.33346934499279085040
-0.32924991278186083177
-0.21831931898861595132
-0.19427088461109859319
-0.17357775457538399122
-0.64586496218139788361
-0.29265794312377529929
-0.19809478679115599675
-0.23985064850902726441
-0.21476436417921970778
-0.25149790514412950770
-0.19635826109890663904
-0.23064759696887074392
-0.20948504005291729291
-1.00000000000000000000
-1.00000000000000000000
-0.94802810664183412293
-0.78733339385323786175
-0.84169480356845305380
-0.79138765955587619949
-0.42895398106409121652
-0.42807314046483668779
-0.47133514300235057615
-0.47151331815020908200
-0.20556131263906318729
-0.33174148282244975139
-0.33332810186086736515
-0.29680195387466440371
-0.73861291196077649701
-0.38871655762310874938
-0.36063473075824925562
-0.35458844974626335667
-0.39221163570480455096
-0.29694319700658788896
-0.15013464534938136818
-0.17082777538509597015
-0.12669153612337871739
-0.51018459082356693024
-0.50541568581155238427
-0.55362659005301662063
-0.25779691943451910063
-0.22736239275999889364
-0.26222341644925512005
-0.63804523098392085245
-0.59401776309700371481
-0.58619803189952668365
-0.22106337846960930071
-0.15462997044028425897
-0.13568218630518455448
-0.17914700265605626450
-0.16602022370204561064
-0.94634802591090916302
-0.89437613255274339696
-0.89269605182181843706
-0.84001472283752809389
-0.54580685885553958947
-0.28618564652115302538
-0.32643332914569411773
-0.29149380019790871454
-0.38720988392005895040
-0.34458494617677210003
-0.38632904332080442167
-0.32038704813370821878
-0.34958669796151775611
-0.46743434702088981769
-0.42399416933551747899
-0.41991519820619821468
-0.66372604890184572213
-0.72552972137754179194
-0.67680923948508042720
-0.17220946883890567158
-0.14806067657890470413
-0.18141252037906219208
-0.46266544200887527172
-0.26297264476467757666
-0.22886084939084383461
-0.26283140163275409140
-0.62496204040068614738
-0.10731539714664095619
-0.08793925816990319499
-0.13075850637264357923
-0.22811162107542137800
-0.11181072223754387474
-0.14187143144204461542
-0.18782647787716141852
-0.16088859157510312925
-0.19412549216755101145
-0.94634802591090916302
-1.00000000000000000000
-1.00000000000000000000
-0.78403911441838325391
-0.78074483498352864608
-0.83672044340267359708
-0.15447463407700390281
-0.38140705990494644384
-0.33966296276091412221
-0.33474097934505619989
-0.72223544194268718410
-0.37732808877562717953
-0.25874589233915534781
-0.22068983080364623639
-0.25343773866239960313
-0.53847072982442234501
-0.49807955678043519532
-0.49074342774931800637
-0.27887032539667377939
-0.27155500427219453341
-0.31307172700922891728
-0.30806997522448331672
-0.22477534009724503550
-0.41521887926323963747
-0.41052256032028111576
-0.45796912306591675001
-0.08492605658433108329
-0.04316057704528343530
-0.06554991760759332209
-0.57215495842491459477
-0.55811188495030261691
-0.61091896692607416952
-0.16426927802430532632
-0.19656506370757459434
-0.19581583539215210998
-0.16257893479970422779
-0.10856108701462341415
-0.08143998772406228770
-0.11475033215148350285
-0.45063299403479956107
-0.06892621939541319909
-0.04991318062092320318
-0.09279768346305387883
-0.52442765634981025613
-0.88966370720518728188
-0.94483185360259369645
-0.89117987951350285947
-0.83520427109435790847
-0.20982283230921894290
-0.24800423941518598414
-0.21525633155643258965
-0.29808767245879108643
-0.30300965587464900874
-0.26143436557252597296
-0.24068891829070673816
-0.12325204736331969724
-0.09844341814773469035
-0.12966600486141890980
-0.06567658417249275238
-0.26649468492236028094
-0.33031893029458858635
-0.37511706425039337276
-0.33252995481982239312
-0.66725620829962939418
-0.67078636769741295520
-0.72576560134047074513
-0.37042074530743485106
-0.19428083300546694634
-0.15970081662009008583
-0.19019532371186814723
-0.08994170293589848209
-0.56222678952124693907
-0.56634169409219115021
-0.61503387149701849168
-0.16198504732219770608
-0.04724889844533337185
-0.02485955788302349201
-0.00655853872076354871
-0.02823585967084337595
-0.13220793464078270385
-0.10352727770646227845
-0.13389827786538380239
-0.61856403089480205271
-0.40423983700102761318
-0.44749163237517280978
-0.40738119866065436447
-0.94483185360259369645
-1.00000000000000000000
-1.00000000000000000000
-0.10098534792709848440
-0.51863205014357083300
-0.48494782154307847222
-0.47915221533683893806
-0.77654103275999319944
-0.83310236998259024066
-0.77864293387176086725
-0.26585452471419135367
-0.30029775202962377678
-0.26364444514335866332
-0.18847532535204117310
-0.15626081990043610981
-0.18304182610482752636
-0.72366370022870307732
-0.29808672750438997001
-0.23941350018783552622
-0.20854741420634775873
-0.20727199610347654679
-0.23435318083800127376
-0.15798081826026311170
-0.04859851543832048593
-0.03283511188675095060
-0.01575704315257869109
-0.44169602616893327562
-0.52274695471451504414
-0.37115668667512674572
-0.33105487166228048102
-0.33179081302997237568
-0.06817783788177973758
-0.05967612266994352932
-0.03791225761582477788
-0.36801532501549999443
0.01489938194247184336
-0.00340163721978809994
0.03635730260570723543
-0.10271464070235900023
-0.13120772866122454303
-0.13349195936333216328
-0.10312095920441063934
0.00708783708631490622
0.02073421289339336115
-0.01458948386376492101
-0.94315787442192422496
-0.88798972802451792141
-0.88631574884384844992
-0.02683465038420173449
-0.83142839080192088019
-0.07637372996531965885
-0.07383180018595586480
-0.04922018222417703232
-0.56649596344089681033
-0.56665023278960235942
-0.61871830024350771282
0.00248858487040733503
-0.18702695003307179267
-0.16024594382868037612
-0.16423106775692464243
-0.18575153193020060849
-0.24383020900011131982
-0.24162012942927862946
-0.22180589328603131372
-0.21453894469475393025
-0.66667615189973872258
-0.72160859232986596101
-0.66873125979857583889
-0.04356621992000090510
-0.30537973183144151434
-0.27314752904124284250
-0.28044053336829438683
-0.45656868643838771638
-0.51145519026528940554
-0.46786045088761329946
-0.30611567319913335350
-0.10855137671910462804
-0.13240609830977037586
-0.13412609666959735000
-0.44139391654700765866
-0.40393772737910205173
-0.40363561775717643476
-0.61666319234467059651
-0.10563300871073180720
0.05690097380828365581
0.07744464501086008312
0.03544305314504826721
-0.33881981547981193659
-0.37152982624041974713
-0.33530531425489218389
-0.51160945961399506565
0.04908942895212672214
-0.07424093833298049672
-0.04495459895949871498
-0.07383461983092885761
-0.04708739059183787712
-0.94315787442192422496
-1.00000000000000000000
-1.00000000000000000000
-0.76211980367435694372
-0.82421777625910275233
-0.76933041821717507158
0.00258235570190174651
0.02092175455638218412
-0.00849525152972129688
-0.43010215209778207557
-0.37122771661849418567
-0.71439797778704783315
0.03574926049345086843
0.00999610867043608867
0.02824173669342211479
-0.14161950084652330517
-0.12697818179261050053
-0.14560462477476757148
-0.25240374150731331726
-0.25912913311075236322
-0.23710481739667232937
-0.17604552385084742960
-0.18785997994477024453
-0.19756598802412339566
-0.26642213743780385204
-0.20483293661540077912
-0.11776477925585757123
-0.01617082935812893044
0.00557059889956691961
-0.02182479166230505765
-0.28796789638539999068
-0.29549525940250553901
-0.31364303621623895735
0.02833550752491652627
-0.31715753744115871005
-0.08661367447415081744
-0.08369530646577799660
-0.06467597222919700684
0.07495691283546647432
0.11355652306522570627
0.09550058403804290164
-0.56861178969855463716
-0.61764397079914667987
-0.56763101124407855380
0.01324617672797455230
-0.05481528559434786091
0.07793361377985272287
0.07842258254884534874
0.04957839772111935495
-0.51879933489977347882
-0.46375856172416612955
-0.47094843700994454272
-0.94410097588115560185
-0.88725885030307982682
-0.88820195176231131473
0.05708592152114810858
-0.82516087771833412923
-0.02848286909465262695
-0.00774555596512822332
-0.02635007746231346829
-0.38100544560710219999
-0.35837527345702796522
-0.40747197994770784080
-0.00108747853278065186
-0.34859754446841995090
-0.65106425606463480538
-0.70659202986949587455
-0.65887020398218676398
-0.15918855278980742485
-0.14056210980765032614
-0.15414603782269017951
-0.51978011335424956219
-0.17100300888373021202
-0.24490475808147130210
-0.22960583397083028645
-0.23740577465562928694
-0.19974546811915711020
-0.21163095629354397587
-0.21671842478978764479
-0.26271880151969340123
-0.27303386153207342968
-0.27673719745018388050
-0.60983802288159472127
-0.09301399664429442493
-0.10999608921845246967
-0.10078268668169952649
-0.28426456046728948435
-0.07884498443674571588
0.05502326189474634338
0.07429726329604181834
0.04760950892621200470
-0.22451836547458664528
-0.31060311634486165167
-0.32471146591233679413
-0.30304918787368362310
0.13543543630495380459
0.15731434954468190290
0.11737949727777099995
-0.38066133130180163091
-0.42580488415587308682
-0.41861500887009467364
-0.02491257247204864064
-0.04479427235062282547
-0.03493358571577367955
-0.36951830237941479806
0.10683227150784543880
0.13621989800483078059
0.10732124027683806466
0.04420343275865201704
0.06748511096092184303
0.03652785493024438002
0.07635992292244359048
-0.33448919490094480844
-1.00000000000000000000
-1.00000000000000000000
-0.94410097588115560185
-0.00143760591439264776
0.00487034413634292781
-0.02004212741157789315
-0.78510325770117828093
-0.83665260473174485334
-0.77361153068776755681
0.14676712377475634175
-0.67791194205812776996
-0.72001587286624235684
-0.66448809906138128767
0.07089118712848183068
-0.12489496458928975309
-0.12281174738596899176
-0.13847889260432957870
0.03643695355062374214
0.01434569879274776028
0.02100377622509532957
-0.01002111416785285598
-0.25814235683888964168
-0.25064337341304765427
-0.26388097217046596610
-0.10791287201513170835
-0.18850580069914962822
-0.17164882963810956795
-0.18915162145352898415
-0.48030065502618196627
-0.52445622236236832947
-0.47562454601806325449
-0.26845741685126967013
-0.20039128887353646613
-0.73150759987965296993
-0.61444234129757679952
-0.57321610811453682643
-0.57782042653051890468
-0.27946390118555192172
-0.28589394083903041377
-0.29069460012076797639
0.05196103225577279605
-0.06133283559416816827
-0.05798969895913932970
-0.07550184780171687038
-0.29824852859194606047
0.17231552645109146638
0.15043661321136336806
0.18731670335750102985
-0.04145113571559398691
0.10266796440473599517
0.12691334626062664159
0.10060530477833423690
0.02065364884348333541
0.13156662213272871109
-0.42992659078539829931
-0.38478303793132684341
-0.38890474456085200039
-0.21909658321418823412
-0.22656221013483246463
-0.23198399239523087578
-0.34301153816267671015
-0.31912545960659355337
-0.32764780286832545508
-0.35415456708506354300
-0.52906054077835040772
-0.62786618429432339283
-0.94698773520815271443
-0.89108871108930842730
-0.89397547041630542886
-0.83953936405874185489
-0.43460269979351695557
-0.27488745650474821769
-0.14697716712480635159
-0.15056160247374827943
-0.13489445725538767862
0.09826233928703657916
0.12222741527803133998
0.09485626311947659151
-0.20785691579418072439
-0.16806439428916766787
0.17764868271378053688
0.19798301588287917085
0.16710145694385497572
-0.24651681048213414105
-0.25562784630863899515
-0.25975440923955250838
-0.09603974619985934658
-0.09906549575542426822
-0.11093862157069662999
0.00875264053116132749
-0.00807996597044365744
0.00681149233375212722
-0.07852759735728179202
0.12457038076932899773
-0.24109502822173572989
-0.30567282740151247022
-0.29331823964859682352
-0.30074253845816328878
0.07488076133242851928
0.08227641170393520942
0.05935668262727947231
-0.69395980927681810702
-0.73953153348899824948
-0.68593587566747293849
0.04061475841672528009
0.04479256328282681804
0.02483145370958487336
0.20639044752790169923
0.22546419169830239637
0.19138927062149213576
-0.02526754366388572412
-0.04162862131151252865
-0.02509005806796718238
-0.31059338789071722076
-0.31058365943657273434
-0.31911573115244906695
-0.33014781209615701174
-0.35952627832850447831
-0.35540457169897932133
0.21172360379059079749
-0.32889780748224123341
0.15939690161167957561
0.18257390521852837062
0.15474362573957750611
-0.12302133144011531685
-0.59511408553344302685
-0.63651301379578539841
-0.58646725603198102128
-0.30566309894736798380
-0.00825745156636219918
-0.27175175641262605541
-0.27962254065478614473
-0.28275824074690825150
0.19027846055070377074
0.02677260190699407363
-0.94698773520815271443
-1.00000000000000000000
-1.00000000000000000000
-0.48716424022010207384
-0.49402782541402212590
-0.53592412597227045978
0.12227059585914545892
0.12231377644025956397
0.09489944370059069656
-0.84377971657305139708
-0.78934361021548782311
-0.79358396272979747632
0.06353448749338101720
-0.20236867882555817366
-0.21558573619758736317
-0.22107397316620991390
-0.26762519348171254219
0.10229509407209738669
-0.64453694740513056693
-0.43803528228684829315
-0.39233732705418333797
-0.39576990954751467555
-0.16267621741910795463
-0.17837526771340955767
-0.18376344458346927091
-0.74377188600330779167
-0.29018253955647471676
0.14860587433068908614
0.15094883982198675776
0.17498433338334684617
-0.05554026697338569629
-0.05309083498763205594
-0.07607816537152815861
-0.54457095547373257638
-0.25153690606598561041
-0.23700408797908234515
-0.24744596582333225343
-0.03917918932575888830
-0.44489886748076840073
-0.13574686683594183734
-0.14136201698037409447
-0.11740618129568305972
0.22256318226851951048
0.25780966117953801886
0.24163692643892020762
-0.19698050195549846042
0.17877911930093759452
-0.32538975216016313707
-0.35714724836050759649
-0.32776878212816007441
-0.31086150191878803017
-0.31925465239355677038
-0.31072258067768038226
-0.32050465700747254871
0.22806191733816316702
0.24180250524587479366
0.25814081879344719095
-0.23151585101045979442
0.04392929508184596765
0.04306602688086512420
0.02590933370601322672
-0.36057983085383893407
-0.94805197427219267681
-0.89503970948034539123
-0.89610394854438535361
-0.15706106727467569750
-0.00224080100595758572
-0.01375417233492165492
0.00325591976260187089
0.08190406140497356879
0.08153171110601192817
0.06316213719441937657
-0.84484395563709147048
0.20675833410763660991
0.21446288943981201003
0.23094276299674484920
-0.30353874281419024328
-0.30633494717021719778
-0.30845930330339499381
-0.26402502050198300987
-0.27242219469532702458
-0.27602236767505661241
0.14532829850703909980
0.16842918173604687349
0.14537147908815323261
-0.29145520644838784907
-0.29609887245327559668
-0.28553887355158702466
-0.60260912050014980856
-0.61010415546685670130
-0.65203198237183745967
0.17170675755969685983
-0.25993408025932962513
0.12275655853204676948
0.10251648511799099639
0.12253516748615317367
0.24454179089509603395
-0.02766581799679482256
0.02041261293745377098
-0.74612672852710570925
-0.69631465180061602460
-0.69866949432441394219
-0.09016072432711906559
-0.09461311004127166691
-0.07162577965737555730
-0.11295379558153045840
0.06229886899343852619
-0.55391306853806243637
-0.50336993847835187488
-0.51271205154268173487
-0.30859822454450258622
0.25824688786698390963
0.27441962260760177639
0.29102958403566547840
0.10214413481902934189
0.23649807392965327413
0.20574120365650006015
0.20953598957409080850
0.27458520141455633468
-0.40936862587386824153
-0.45169822564394518372
-0.40256926771069145854
-0.31405555182502076228
-0.31643458179301769961
-0.30272135148987838749
-0.30679142670433323659
-0.65438682489563526623
-0.30107925557045100984
-0.30141597268273867538
-0.30387545992647790882
-0.28193870057185743683
-0.20781730600000000719
-0.21170152109879369906
-0.19309628685670476855
-0.29643558956556326223
0.23372041846319907554
-0.22770928259879369415
-0.23983282899999999738
-0.24363939741166612540
-0.56140810350476921808
-1.00000000000000000000
-1.00000000000000000000
-0.94805197427219267681
-0.15308314541797091168
-0.17041942400000001379
-0.17439734585670479960
-0.32309481855088711955
-0.35943236404920086979
-0.32424228535552512831
-0.79274292448751981777
-0.84442343651595264120
-0.79316344360865864704
-0.46104033870827498820
0.16658400455375360627
0.16473882737146031130
0.14352630190585993764
-0.04294864248722141814
-0.04801973873742673704
-0.02259472174658950366
0.14374769295175354733
-0.74570620940596687998
0.19293058352260880617
0.19620815934625879251
0.21743198530917073885
-0.22382506750000000229
-0.26563680800000000204
-0.26902950134766351331
-0.25654138691166611386
-0.36623172221237765278
-0.06655468340717024534
0.04393733762381295260
0.04480864836676077406
0.02128392368040159244
-0.18911836500000001049
-0.30234301684326753135
-0.29835108651631786492
-0.30460629421755291979
0.07592520515654575808
0.05949561601870544114
0.07872845813127885006
0.22696502961941200649
0.25642674503830820143
0.27002577293665935843
0.28191072707987152590
-0.12860776800000001119
-0.13217731741797092426
-0.10938424616355954533
-0.25273481850000001359
0.30874567382783146829
0.29213571239976771077
0.32646176361999740267
-0.30053621900309812620
0.30564580441209809880
0.32026202478853071920
0.28920142179098895507
0.09779788251006717170
0.11841030622308459930
0.11406405391412241523
-0.14951359600000002636
-0.27849156384766349248
-0.28456093300000001589
-0.28800806972419390473
0.25920440050476240001
-0.29514089014485694884
-0.28756042879983551019
-0.30647509047999932363
-0.30532762367536131487
-0.61854079677716589103
-0.65860514555078997212
-0.61432247612201129616
0.06036692676165326954
-0.94812146589587098511
-0.89617344016806366191
-0.89624293179174185919
-0.57226981037662905116
-0.52357375841454167897
-0.53443546528640151205
-0.84449292813963083848
-0.30360617231342423850
-0.30114668506968494954
-0.30087739745663122370
0.30108637593420112255
-0.29876552584136933932
-0.29378514272419392617
-0.29611507900000000326
0.09499462953533407972
-0.27509887050000003672
0.00516901176215086439
-0.01888981536253527688
0.00146410537809663933
-0.42997789993354745830
-0.47134497573811462434
-0.41967326290370787767
0.02498883006445581922
-0.29961424198647457207
0.20749847645168281729
0.18611865191157156429
0.18796382909386483151
0.21246523088042679195
0.14027200516526236451
0.16126313958496912848
0.15778745179847794566
-0.73618364268028935182
-0.68914692759873641403
-0.67962436087305888588
-0.06320694084361071219
-0.08346523919999999930
-0.08681298176355953244
-0.29033800600000003733
-0.32896263393942476450
-0.36916562990664647526
-0.32602872624515594202
-0.57648813103178375705
0.13592575285630018045
0.27010755675332115411
0.24376977103124594648
0.25330281534148724187
-0.10603650359999999830
-0.64908257882511244397
-0.29036078249433883158
-0.28237047847235974274
-0.29254591498111903736
-0.48220668260997445742
0.26906443808505953186
0.29177076466016871326
0.30163080224046584510
0.34195764304840620129
0.35745352247681499991
0.32424155325624026691
0.33885777363267288731
-0.28496545363609759871
-0.37947026693648611140
-0.30070798634136930438
-0.29999999999999998890
-0.30043869872831563406
-0.29805753950000002384
0.09621394826026839764
0.07051129831351458932
0.08606957670840707786
-0.94812146589587098511
-1.00000000000000000000
-1.00000000000000000000
-0.29775572401663663591
-0.27998852914111083123
-0.27241662948238615227
0.28586917949689349960
-0.84429681907353404391
-0.79254681542142302320
-0.79235070635532611760
0.10513900108719539950
0.31160238324338040972
0.33077803209771006188
0.34129403940688934904
-0.03616100409999999793
-0.03955482329361070803
-0.01549599616892456677
-0.30068963171090545838
-0.73598753361419255725
0.20381821535125002609
0.20013795425081723489
0.18243839081113877310
0.17896270302464759028
-0.29590059920769923307
-0.29092380095876724244
-0.29463744373754252592
-0.05981312164999999514
0.04882853985469273739
0.05284843134262470765
0.02900872155238778602
0.24607495440341406456
0.22678671542754844093
0.23175346985629241559
0.25809125557836759546
0.32146242082367759707
-0.54961918929202990824
-0.56480291329765841546
-0.59167185503741215324
0.07453118980144654571
-0.28887744309255619646
-0.27940379966879452800
-0.28088713907057716312
0.13078788205108113352
0.15264958099325889873
0.14751171018803985180
-0.62221363708535859516
-0.46067190173035438283
-0.49755368350837791969
-0.44532490083195092057
0.35995532047690481647
0.39344887733381228578
0.37545119990531361509
-0.28516380031378085746
0.35458557293272419120
0.37318132177686630380
0.38890912107691760768
0.12186282922415411778
-0.26379284046227274851
-0.27567663463105412935
-0.27308165946731621787
0.36510158024190347836
-0.26810473497232945039
-0.33948863796900929923
-0.38473326895127835101
-0.33422563595421705962
-0.29805753950000002384
-0.29611507900000000326
-0.29849623822831561348
-0.94819622222250088406
-0.89631768811837186917
-0.89639244444500187914
-0.84437157540016394286
-0.51273740751400642690
-0.29351943997938362285
0.32332911606720327047
0.29671833641026224004
0.31247995915383453003
0.01207978200000000071
-0.01204061104999999861
0.00862439688107543255
0.03246410667131235245
-0.74315319002381019509
-0.68679001728267663474
-0.69395567369229427257
-0.40008026984968181328
0.22478951153685478026
0.24208054662202671548
0.22110925043642198906
-0.26744740334691968764
-0.26247817721145322301
-0.29572040557543899375
0.19542029678530509207
0.19070263931979292149
0.17424504555913544745
0.24407775051272040390
0.35727220424630840023
0.32945150324338712267
0.34928312182659887464
0.16910717475391640052
-0.59209861983557254828
-0.63586149035431571708
-0.57845076656661542636
0.27950043740139274284
0.28889331804946427606
0.26748413622643918419
-0.30098340759023123336
-0.27414674014196660501
-0.27266340074018396988
-0.26592300181157341177
0.09846089819252636099
0.07565466476757554126
0.09733742322639737932
-0.64302714676393346593
-0.26485792113692308014
0.40820681219068555290
0.42296474704755882001
0.39020913476218688221
0.30611121705833377327
0.34030066015675586311
0.40593693406223818609
0.14038211363115310482
0.11829803094571075817
0.14394691190959646443
-0.27617135418589117135
-0.28193135483087750082
-0.27293890870298781470
-0.25757398859824121029
-0.25326209408818456392
-0.24273134771409632382
0.36804050260442544573
0.39184804343943957505
0.39478696580196159793
-1.00000000000000000000
-1.00000000000000000000
-0.94819622222250088406
-0.84551236783257444074
-0.79349149878773661548
-0.79463229122014700234
-0.25260476246277474566
0.26548693233574549577
-0.49171981577046780520
-0.52826136453406313809
-0.47619585875041109402
0.11942150591183972597
-0.74429398245622069297
-0.29033800600000003733
-0.28456093300000001589
-0.28774236697938360141
0.37602958502413497133
0.06000770810000000122
0.03604374504999999923
0.05642806972131235443
0.21600784524951371912
0.23697914143511844554
0.23187773624821017560
0.21129018778400154854
-0.42461249828969116482
-0.36402086640901865078
-0.38855309484902800232
-0.54190921780302014898
0.07923430314626317417
-0.27874992085149391530
0.18668155607106401428
0.18266047282233507931
0.16508609150518746556
-0.26209378665741156489
-0.26883418558602212300
-0.25826457150324966250
-0.29786934717042101717
-0.25936411679164295130
-0.25625005637183273510
0.16152129322674407819
-0.26560174010311876636
0.44057272088782473141
0.42581478603095146429
0.45818069472809069831
-0.25623121477939059254
-0.24653942774720771780
-0.25516613410474020540
-0.44013645530974787601
0.45361393898606194863
0.42126153003148980591
0.43828934301681038432
0.37504005407179197285
0.34918458506949762166
0.36615612915905015878
-0.24463538773065202081
0.33244580385940103451
0.34156249165159885406
0.31522790485053153731
-0.59848761364737212975
-0.60487660745917171123
-0.64941614057573304741
0.41324523928370310299
0.41030631692118113563
0.43170351276544460806
0.27499200070321094813
0.25853627366261883180
0.28194265937633761210
-0.94779275395245510261
-0.89598897617495598666
-0.89558550790491009419
-0.84510889956252854827
-0.23272225277165969892
-0.22271315782922310178
-0.24259566752033817627
-0.33687290132917135921
-0.31234067288916200766
-0.28519270780931466058
0.44265872587575327834
-0.74663363358926282398
-0.69629532482533651461
-0.69863497595837864562
0.25343486847571056186
-0.27072138209057372560